LAMMPS (29 Aug 2024 - Update 1)
ERROR: Cannot open file data_toy_protein3: No such file or directory (src/read_data.cpp:367)
Last command: read_data       data_toy_protein3
