LAMMPS data file via write_data, version 7 Aug 2019, timestep = 120000

13 atoms
6 atom types
12 bonds
1 bond types
11 angles
2 angle types

-7.00e+00 7.00e+00 xlo xhi
-7.00e+00 7.00e+00 ylo yhi
-0.1 0.1 zlo zhi

Masses

1 5
2 5
3 5
4 5
5 5
6 5

Atoms # full

1 1 6 0 -6 0 0
2 1 5 0 -5 0 0
3 1 4 0 -4 0 0
4 1 3 0 -3 0 0
5 1 2 0 -2 0 0
6 1 1 0 -1 0 0
7 1 1 0 0 0 0 
8 1 1 0 1 0 0
9 1 2 0 2 0 0
10 1 3 0 3 0 0
11 1 4 0 4 0 0
12 1 5 0 5 0 0 
13 1 6 0 6 0 0


Bonds

1 1 1 2
2 1 2 3
3 1 3 4
4 1 4 5 
5 1 5 6
6 1 6 7
7 1 7 8
8 1 8 9
9 1 9 10
10 1 10 11
11 1 11 12
12 1 12 13

Angles

1 1 1 2 3 
2 1 2 3 4 
3 1 3 4 5 
4 1 4 5 6
5 1 5 6 7
6 2 6 7 8
7 1 7 8 9
8 1 8 9 10
9 1 9 10 11
10 1 10 11 12
11 1 11 12 13
