ITEM: TIMESTEP
0
ITEM: NUMBER OF ATOMS
13
ITEM: BOX BOUNDS pp pp pp
-7.0000000000000000e+00 7.0000000000000000e+00
-7.0000000000000000e+00 7.0000000000000000e+00
-1.0000000000000001e-01 1.0000000000000001e-01
ITEM: ATOMS id type x y z
1 6 -6 0 0
2 5 -5 0 0
3 4 -4 0 0
4 3 -3 0 0
5 2 -2 0 0
6 1 -1 0 0
7 1 0 0 0
8 1 1 0 0
9 2 2 0 0
10 3 3 0 0
11 4 4 0 0
12 5 5 0 0
13 6 6 0 0
ITEM: TIMESTEP
10000
ITEM: NUMBER OF ATOMS
13
ITEM: BOX BOUNDS pp pp pp
-7.0000000000000000e+00 7.0000000000000000e+00
-7.0000000000000000e+00 7.0000000000000000e+00
-1.0000000000000001e-01 1.0000000000000001e-01
ITEM: ATOMS id type x y z
1 6 -5.79769 -0.221994 -0.000221678
2 5 -4.94284 0.297968 -8.70829e-05
3 4 -3.93835 0.321209 -0.000496556
4 3 -2.98015 0.0358958 0.000597811
5 2 -1.99492 0.0563626 -0.000201377
6 1 -1.01099 -0.232736 6.87281e-05
7 1 -0.0114944 -0.413577 0.000430847
8 1 0.997123 -0.320112 7.46255e-05
9 2 1.92245 0.00593769 0.000353846
10 3 2.93569 0.0105075 9.9576e-05
11 4 3.95375 0.156932 0.000214475
12 5 4.95398 0.157619 -0.000309192
13 6 5.9451 0.117896 0.000150968
ITEM: TIMESTEP
20000
ITEM: NUMBER OF ATOMS
13
ITEM: BOX BOUNDS pp pp pp
-7.0000000000000000e+00 7.0000000000000000e+00
-7.0000000000000000e+00 7.0000000000000000e+00
-1.0000000000000001e-01 1.0000000000000001e-01
ITEM: ATOMS id type x y z
1 6 -5.77294 -0.233302 -0.000109534
4 3 -2.97573 0.000809063 0.00052067
7 1 0.00263185 0.112131 2.18725e-05
8 1 0.930176 -0.250526 -0.00017125
9 2 1.92839 -0.281005 0.000415439
10 3 2.90201 -0.0213618 -0.000496881
12 5 4.88449 -0.0103091 -0.000496357
2 5 -4.86683 0.0998794 2.74768e-05
3 4 -3.92837 0.319681 -0.000698985
5 2 -1.94766 -0.0201947 -0.000303929
6 1 -0.954565 -0.0756065 0.000442699
11 4 3.89189 -0.00675507 -4.04067e-05
13 6 5.84413 0.334287 3.86969e-05
ITEM: TIMESTEP
30000
ITEM: NUMBER OF ATOMS
13
ITEM: BOX BOUNDS pp pp pp
-7.0000000000000000e+00 7.0000000000000000e+00
-7.0000000000000000e+00 7.0000000000000000e+00
-1.0000000000000001e-01 1.0000000000000001e-01
ITEM: ATOMS id type x y z
2 5 -4.93342 -0.0122261 0.000264251
4 3 -2.95193 -0.0348199 0.000914561
5 2 -1.95936 0.160243 -0.000195305
8 1 0.995649 -0.181529 -4.78387e-05
9 2 1.99442 -0.156632 -2.1528e-05
10 3 2.97361 -0.330409 -0.00042415
11 4 3.98875 -0.283422 5.0963e-05
1 6 -5.92419 0.171177 0.000150672
3 4 -3.94322 -0.022714 -0.000699534
6 1 -0.989975 -0.109365 0.000103076
7 1 -0.00701177 -0.0307406 -0.000305069
12 5 4.80349 0.284095 -0.000233291
13 6 5.77149 0.482057 -4.577e-05
ITEM: TIMESTEP
40000
ITEM: NUMBER OF ATOMS
13
ITEM: BOX BOUNDS pp pp pp
-7.0000000000000000e+00 7.0000000000000000e+00
-7.0000000000000000e+00 7.0000000000000000e+00
-1.0000000000000001e-01 1.0000000000000001e-01
ITEM: ATOMS id type x y z
2 5 -4.9123 -0.176075 0.000340811
4 3 -2.96275 -0.018645 0.000941415
5 2 -1.977 -0.141993 -8.1939e-05
8 1 1.004 -0.19415 0.000632224
9 2 1.99111 -0.0908566 0.00017417
10 3 2.92565 -0.448149 -0.000185611
11 4 3.79588 0.0300953 0.000291858
1 6 -5.73109 0.419617 0.000290629
3 4 -3.938 0.0404951 -0.00129497
6 1 -0.988431 0.00335202 0.000127766
7 1 0.0329669 -0.118744 -0.000241407
12 5 4.75476 0.283206 -0.000589427
13 6 5.76319 0.36069 0.000667179
ITEM: TIMESTEP
50000
ITEM: NUMBER OF ATOMS
13
ITEM: BOX BOUNDS pp pp pp
-7.0000000000000000e+00 7.0000000000000000e+00
-7.0000000000000000e+00 7.0000000000000000e+00
-1.0000000000000001e-01 1.0000000000000001e-01
ITEM: ATOMS id type x y z
2 5 -4.85049 -0.119912 0.000531912
5 2 -1.97551 -0.0636807 0.000180864
6 1 -0.996263 -0.332246 2.55888e-05
7 1 -0.0200754 -0.184349 -2.27074e-05
8 1 0.997582 -0.151945 0.000576835
9 2 1.96893 -0.124535 -5.25975e-05
10 3 2.98262 -0.189346 1.61657e-05
1 6 -5.80688 0.18521 0.000820164
3 4 -3.93021 0.272746 -0.00110574
4 3 -2.95616 0.0886862 0.00104044
11 4 3.8733 0.210582 -0.000400833
12 5 4.82253 0.496927 -0.000896653
13 6 5.58155 -0.113919 0.000881078
ITEM: TIMESTEP
60000
ITEM: NUMBER OF ATOMS
13
ITEM: BOX BOUNDS pp pp pp
-7.0000000000000000e+00 7.0000000000000000e+00
-7.0000000000000000e+00 7.0000000000000000e+00
-1.0000000000000001e-01 1.0000000000000001e-01
ITEM: ATOMS id type x y z
2 5 -4.90572 0.206785 0.0007826
5 2 -1.96683 -0.0423015 -0.000103776
6 1 -0.977934 -0.213316 0.000141694
7 1 0.00416767 -0.503188 -0.000307533
8 1 0.880299 -0.0604283 0.00113787
9 2 1.89385 -0.0336713 0.000291964
10 3 2.88436 0.121161 -0.000137773
1 6 -5.85726 0.427867 0.000510117
3 4 -3.93001 -0.0456028 -0.000831908
4 3 -2.94511 -0.267521 0.00130286
11 4 3.88042 0.0561948 -0.000351187
12 5 4.83701 0.308802 -0.000870586
13 6 5.82665 0.0804725 0.000866018
ITEM: TIMESTEP
70000
ITEM: NUMBER OF ATOMS
13
ITEM: BOX BOUNDS pp pp pp
-7.0000000000000000e+00 7.0000000000000000e+00
-7.0000000000000000e+00 7.0000000000000000e+00
-1.0000000000000001e-01 1.0000000000000001e-01
ITEM: ATOMS id type x y z
3 4 -3.71177 -0.128365 -0.00125964
4 3 -2.76332 -0.495343 0.000741418
6 1 -1.11478 -0.145613 -7.1463e-05
7 1 -0.126831 -0.336999 -0.000156122
8 1 0.863806 -0.243542 0.000900729
10 3 2.86963 -0.0392198 -0.000474357
11 4 3.82431 -0.33363 -4.21731e-06
1 6 -5.59974 0.53745 0.000522255
2 5 -4.6514 0.271695 0.000670016
5 2 -2.05911 0.216214 -0.000569707
9 2 1.85482 -0.000702254 0.000537844
12 5 4.65372 0.19145 -0.000581194
13 6 5.5763 0.616846 0.000908019
ITEM: TIMESTEP
80000
ITEM: NUMBER OF ATOMS
13
ITEM: BOX BOUNDS pp pp pp
-7.0000000000000000e+00 7.0000000000000000e+00
-7.0000000000000000e+00 7.0000000000000000e+00
-1.0000000000000001e-01 1.0000000000000001e-01
ITEM: ATOMS id type x y z
3 4 -3.64433 -0.0314763 -0.00151908
4 3 -2.65839 -0.181489 0.000718647
6 1 -0.861098 -0.136227 0.000283835
7 1 -0.041632 -0.701057 -0.000181106
8 1 0.764444 -0.108923 0.000207297
10 3 2.72159 -0.0162267 -0.000564671
11 4 3.67967 -0.369894 -0.00014121
1 6 -5.54824 0.484218 0.000793042
2 5 -4.64398 0.071977 0.000550967
5 2 -1.77271 0.266408 -0.000579725
9 2 1.7396 0.0596056 0.000852582
12 5 4.44607 0.269487 -0.000299171
13 6 5.44215 0.495339 0.00114019
ITEM: TIMESTEP
90000
ITEM: NUMBER OF ATOMS
13
ITEM: BOX BOUNDS pp pp pp
-7.0000000000000000e+00 7.0000000000000000e+00
-7.0000000000000000e+00 7.0000000000000000e+00
-1.0000000000000001e-01 1.0000000000000001e-01
ITEM: ATOMS id type x y z
2 5 -4.53688 -0.208111 0.000444329
4 3 -2.72269 0.0291211 0.000408253
7 1 -0.197277 -0.611543 -8.26691e-05
8 1 0.683822 -0.168137 5.82155e-05
9 2 1.67986 -0.16441 0.000900607
10 3 2.66891 -0.057575 -0.000881848
11 4 3.67008 -0.165593 -0.000294517
1 6 -5.42996 0.266581 0.00086698
3 4 -3.68716 0.304181 -0.00197993
5 2 -1.75008 0.0805676 -0.00153976
6 1 -0.77174 0.22169 0.000757074
12 5 4.64982 -0.0367113 -0.000463826
13 6 5.38342 0.658783 0.00158174
ITEM: TIMESTEP
100000
ITEM: NUMBER OF ATOMS
13
ITEM: BOX BOUNDS pp pp pp
-7.0000000000000000e+00 7.0000000000000000e+00
-7.0000000000000000e+00 7.0000000000000000e+00
-1.0000000000000001e-01 1.0000000000000001e-01
ITEM: ATOMS id type x y z
2 5 -4.49569 -0.0322723 0.000262361
5 2 -1.75573 0.0401248 -0.0014001
7 1 -0.122187 -0.63206 0.000234482
8 1 0.758556 -0.201191 9.50131e-05
9 2 1.74003 0.051268 0.000548206
10 3 2.64527 -0.397385 -0.0014027
11 4 3.60304 -0.133701 -0.000217294
1 6 -5.49768 -0.129605 0.00122111
3 4 -3.67719 0.512011 -0.00139289
4 3 -2.71494 0.24845 0.000843304
6 1 -0.753864 0.138259 0.000487722
12 5 4.60721 -0.051705 -0.000328887
13 6 5.22049 0.749189 0.0016098
ITEM: TIMESTEP
110000
ITEM: NUMBER OF ATOMS
13
ITEM: BOX BOUNDS pp pp pp
-7.0000000000000000e+00 7.0000000000000000e+00
-7.0000000000000000e+00 7.0000000000000000e+00
-1.0000000000000001e-01 1.0000000000000001e-01
ITEM: ATOMS id type x y z
2 5 -4.71657 -0.0483773 4.1394e-05
5 2 -1.78243 0.340152 -0.00151331
7 1 -0.0989916 -0.469284 0.00057511
8 1 0.834892 -0.0816266 0.000486071
9 2 1.83016 0.0524301 0.0011353
10 3 2.72862 -0.311609 -0.00156393
11 4 3.70505 -0.110185 -0.000312612
1 6 -5.71535 -0.261924 0.00134439
3 4 -3.77261 0.26679 -0.00139931
4 3 -2.78172 0.180674 0.000978768
6 1 -0.773648 0.261928 0.000714398
12 5 4.72304 -0.191247 -7.72759e-05
13 6 5.3543 0.595226 0.00164894
ITEM: TIMESTEP
120000
ITEM: NUMBER OF ATOMS
13
ITEM: BOX BOUNDS pp pp pp
-7.0000000000000000e+00 7.0000000000000000e+00
-7.0000000000000000e+00 7.0000000000000000e+00
-1.0000000000000001e-01 1.0000000000000001e-01
ITEM: ATOMS id type x y z
2 5 -4.62648 0.0305135 -0.000359425
5 2 -1.85542 0.230349 -0.00171014
7 1 -0.0146842 -0.547709 0.000606881
8 1 0.705876 0.169279 0.000288288
9 2 1.70246 -0.0173093 0.000778029
10 3 2.71424 -0.217977 -0.00175002
11 4 3.73084 -0.183465 1.55949e-05
1 6 -5.61976 -0.0322455 0.000676989
3 4 -3.68972 0.353098 -0.00113955
4 3 -2.80678 -0.0513966 0.000319326
6 1 -0.925376 -0.11332 0.000657543
12 5 4.74107 -0.101804 -0.000574253
13 6 5.42178 0.642698 0.00160726
ITEM: TIMESTEP
130000
ITEM: NUMBER OF ATOMS
13
ITEM: BOX BOUNDS pp pp pp
-7.0000000000000000e+00 7.0000000000000000e+00
-7.0000000000000000e+00 7.0000000000000000e+00
-1.0000000000000001e-01 1.0000000000000001e-01
ITEM: ATOMS id type x y z
2 5 -4.71052 0.16951 -0.000555682
7 1 -0.0536648 -0.506095 0.000742122
6 1 -1.03741 -0.354688 0.000884775
8 1 0.904257 -0.236192 0.000275286
10 3 2.79548 0.0107264 -0.00150943
11 4 3.70115 -0.380773 0.000117916
12 5 4.69378 -0.0516432 -0.00037145
1 6 -5.70026 0.106589 0.000845778
3 4 -3.70186 0.288879 -0.000950582
4 3 -2.77648 -0.0886267 0.000393475
5 2 -1.81708 0.221097 -0.00130922
9 2 1.79301 0.20502 0.00110163
13 6 5.35149 0.736499 0.00182794
ITEM: TIMESTEP
140000
ITEM: NUMBER OF ATOMS
13
ITEM: BOX BOUNDS pp pp pp
-7.0000000000000000e+00 7.0000000000000000e+00
-7.0000000000000000e+00 7.0000000000000000e+00
-1.0000000000000001e-01 1.0000000000000001e-01
ITEM: ATOMS id type x y z
2 5 -4.5786 -0.325835 -0.000254913
7 1 -0.11898 -0.591629 0.000531644
6 1 -0.98281 -0.0937433 0.000707833
8 1 0.867421 -0.388983 0.000653159
10 3 2.64498 -0.20441 -0.00139831
11 4 3.65097 -0.00960813 0.000176268
12 5 4.6293 0.16757 -0.000418244
1 6 -5.33633 0.327915 0.000750218
3 4 -3.81272 0.332324 -0.000838678
4 3 -2.89001 -0.0128039 0.00012452
5 2 -1.90983 0.29501 -0.00104813
9 2 1.72085 0.156404 0.000775735
13 6 5.57921 0.422962 0.00199351
ITEM: TIMESTEP
150000
ITEM: NUMBER OF ATOMS
13
ITEM: BOX BOUNDS pp pp pp
-7.0000000000000000e+00 7.0000000000000000e+00
-7.0000000000000000e+00 7.0000000000000000e+00
-1.0000000000000001e-01 1.0000000000000001e-01
ITEM: ATOMS id type x y z
2 5 -4.73324 -0.174719 -0.000553367
4 3 -2.95941 0.00522498 -2.68033e-05
5 2 -1.97853 -0.216913 -0.000857852
7 1 -0.0910958 -0.711867 0.00076482
6 1 -0.999673 -0.257523 0.000757059
8 1 0.811422 -0.364703 0.000801413
9 2 1.79997 -0.230707 0.00035867
10 3 2.78838 -0.0797305 -0.00140778
1 6 -5.37099 0.594829 0.000271543
3 4 -3.87844 0.358008 -0.00079095
11 4 3.7043 0.361235 0.000179533
12 5 4.71282 0.560972 -0.000388184
13 6 5.60716 0.0866962 0.00220146
ITEM: TIMESTEP
160000
ITEM: NUMBER OF ATOMS
13
ITEM: BOX BOUNDS pp pp pp
-7.0000000000000000e+00 7.0000000000000000e+00
-7.0000000000000000e+00 7.0000000000000000e+00
-1.0000000000000001e-01 1.0000000000000001e-01
ITEM: ATOMS id type x y z
2 5 -4.85075 -0.117481 -0.000918651
4 3 -2.91833 0.128007 0.000406985
5 2 -2.07688 -0.448493 -0.00130943
7 1 -0.0707323 -0.568089 0.000781041
6 1 -1.06911 -0.474308 0.000525851
8 1 0.907545 -0.42885 0.000694502
9 2 1.88376 -0.219219 0.000579073
10 3 2.84492 0.0590803 -0.00114553
1 6 -5.26969 0.761204 0.0004045
3 4 -3.92738 0.237201 -0.000605343
11 4 3.73679 0.470063 -4.67763e-05
12 5 4.74863 0.581746 -0.000671328
13 6 5.53774 -0.0559335 0.00220482
ITEM: TIMESTEP
170000
ITEM: NUMBER OF ATOMS
13
ITEM: BOX BOUNDS pp pp pp
-7.0000000000000000e+00 7.0000000000000000e+00
-7.0000000000000000e+00 7.0000000000000000e+00
-1.0000000000000001e-01 1.0000000000000001e-01
ITEM: ATOMS id type x y z
2 5 -4.73619 -0.118758 -0.000581145
5 2 -1.94829 -0.20417 -0.00101494
7 1 -0.039597 -0.541818 0.00120862
6 1 -1.04016 -0.645344 0.000333932
8 1 0.906858 -0.212211 0.00111965
9 2 1.91154 -0.033309 0.000659014
13 6 5.35866 -0.127289 0.00210385
1 6 -5.51141 0.508317 0.000125445
3 4 -3.87822 0.367902 -0.00113325
4 3 -2.88128 0.113007 -9.08947e-05
10 3 2.88601 -0.162913 -0.0015771
11 4 3.72782 0.37027 -0.000225415
12 5 4.70082 0.622767 -0.000873692
ITEM: TIMESTEP
180000
ITEM: NUMBER OF ATOMS
13
ITEM: BOX BOUNDS pp pp pp
-7.0000000000000000e+00 7.0000000000000000e+00
-7.0000000000000000e+00 7.0000000000000000e+00
-1.0000000000000001e-01 1.0000000000000001e-01
ITEM: ATOMS id type x y z
2 5 -4.70272 -0.062635 -0.000369992
5 2 -1.92891 -0.379598 -0.00069253
7 1 -0.174213 -0.450449 0.00142287
6 1 -1.07441 -0.893294 0.00014386
8 1 0.787288 -0.14826 0.00126194
9 2 1.80529 -0.0490003 0.000557979
13 6 5.45576 -0.203658 0.0023619
1 6 -5.37347 0.652807 0.000229534
3 4 -3.75874 0.223845 -0.0015844
4 3 -2.74453 0.208339 0.00027238
10 3 2.79446 0.113208 -0.00117054
11 4 3.66894 0.509379 -0.000220305
12 5 4.65472 0.431542 -0.000956039
ITEM: TIMESTEP
190000
ITEM: NUMBER OF ATOMS
13
ITEM: BOX BOUNDS pp pp pp
-7.0000000000000000e+00 7.0000000000000000e+00
-7.0000000000000000e+00 7.0000000000000000e+00
-1.0000000000000001e-01 1.0000000000000001e-01
ITEM: ATOMS id type x y z
4 3 -2.8787 -0.345863 0.000266802
5 2 -1.86218 -0.302511 -0.00051444
7 1 -0.0276551 -0.449246 0.00129871
6 1 -0.958536 -0.816737 0.0001855
13 6 5.36601 -0.245035 0.00220193
2 5 -4.70717 0.268651 -0.000598626
1 6 -5.63631 0.596177 0.000337445
3 4 -3.69698 0.223053 -0.00112835
8 1 0.848218 0.0921629 0.0012519
9 2 1.81377 -0.173888 0.000503125
10 3 2.7289 0.221057 -0.000859177
11 4 3.70103 0.450705 -0.000384836
12 5 4.68824 0.48177 -0.00086011
ITEM: TIMESTEP
200000
ITEM: NUMBER OF ATOMS
13
ITEM: BOX BOUNDS pp pp pp
-7.0000000000000000e+00 7.0000000000000000e+00
-7.0000000000000000e+00 7.0000000000000000e+00
-1.0000000000000001e-01 1.0000000000000001e-01
ITEM: ATOMS id type x y z
4 3 -2.86495 -0.28177 0.000485978
5 2 -1.85818 -0.340786 -0.000623931
7 1 0.0197614 -0.393764 0.00151513
6 1 -0.938444 -0.726761 0.000114605
13 6 5.39945 -0.316301 0.00237662
2 5 -4.69667 0.0803352 -0.000590023
1 6 -5.55133 0.571816 8.281e-05
3 4 -3.71637 0.233446 -0.000625587
8 1 0.761369 0.267823 0.00136573
9 2 1.7439 0.0728864 0.000291537
10 3 2.73955 0.188634 -0.000338195
11 4 3.7184 0.346484 -0.000123544
12 5 4.67874 0.40404 -0.000809019
ITEM: TIMESTEP
210000
ITEM: NUMBER OF ATOMS
13
ITEM: BOX BOUNDS pp pp pp
-7.0000000000000000e+00 7.0000000000000000e+00
-7.0000000000000000e+00 7.0000000000000000e+00
-1.0000000000000001e-01 1.0000000000000001e-01
ITEM: ATOMS id type x y z
4 3 -2.7645 0.0303716 0.000446521
5 2 -1.8232 -0.35786 -0.00036108
7 1 0.0501567 -0.705947 0.00147072
6 1 -0.925665 -0.77751 1.26967e-05
13 6 5.49329 -0.217753 0.00234328
2 5 -4.7377 0.207253 -0.000423684
1 6 -5.67334 0.58292 -8.39566e-05
3 4 -3.74616 -0.00908706 -0.000509725
8 1 0.752001 0.0113446 0.000965515
9 2 1.70767 0.386874 8.50958e-05
10 3 2.68644 0.227389 -0.00110031
11 4 3.7098 0.244442 -0.000119672
12 5 4.7128 0.408495 -0.000569878
ITEM: TIMESTEP
220000
ITEM: NUMBER OF ATOMS
13
ITEM: BOX BOUNDS pp pp pp
-7.0000000000000000e+00 7.0000000000000000e+00
-7.0000000000000000e+00 7.0000000000000000e+00
-1.0000000000000001e-01 1.0000000000000001e-01
ITEM: ATOMS id type x y z
3 4 -3.79084 0.0826207 -0.000401625
5 2 -1.87797 -0.155317 -0.000670338
6 1 -1.01871 -0.669977 -7.16903e-05
7 1 -0.0282607 -0.703252 0.00139898
2 5 -4.78054 0.00854645 -0.000832366
1 6 -5.67585 0.527646 8.62149e-05
4 3 -2.80154 0.214897 0.000359743
8 1 0.796521 -0.123403 0.00107738
9 2 1.76801 0.128845 6.21659e-05
10 3 2.76267 0.0912235 -0.00174849
11 4 3.71206 0.334096 0.000316586
13 6 5.70653 0.0719117 0.00211468
12 5 4.70386 0.251007 -0.000690244
ITEM: TIMESTEP
230000
ITEM: NUMBER OF ATOMS
13
ITEM: BOX BOUNDS pp pp pp
-7.0000000000000000e+00 7.0000000000000000e+00
-7.0000000000000000e+00 7.0000000000000000e+00
-1.0000000000000001e-01 1.0000000000000001e-01
ITEM: ATOMS id type x y z
2 5 -4.67698 0.328571 -0.00103946
5 2 -1.77466 -0.352007 -0.000700573
6 1 -0.959222 -0.89237 -0.000186785
7 1 0.0287085 -0.655793 0.00133085
8 1 0.818153 -0.0296372 0.000867427
13 6 5.50806 0.0472684 0.00242102
1 6 -5.68294 0.462499 -1.92992e-05
3 4 -3.68577 0.25146 -0.000363648
4 3 -2.73482 -0.0573381 6.70318e-05
9 2 1.74637 0.32275 -0.000568861
10 3 2.68076 -0.0678687 -0.00141877
11 4 3.63795 0.19611 0.000407034
12 5 4.60122 0.479481 -0.00141888
ITEM: TIMESTEP
240000
ITEM: NUMBER OF ATOMS
13
ITEM: BOX BOUNDS pp pp pp
-7.0000000000000000e+00 7.0000000000000000e+00
-7.0000000000000000e+00 7.0000000000000000e+00
-1.0000000000000001e-01 1.0000000000000001e-01
ITEM: ATOMS id type x y z
5 2 -1.91275 -0.436484 -0.000369181
6 1 -0.942596 -0.729374 -0.000360706
7 1 -0.00448323 -0.38841 0.00128014
8 1 0.929728 -0.0836912 0.001099
10 3 2.60518 -0.0617585 -0.00112812
11 4 3.58647 -0.075341 0.000496669
1 6 -5.65706 0.240838 -3.38792e-05
2 5 -4.63696 0.180128 -0.000730635
3 4 -3.64889 0.273259 -0.000417714
4 3 -2.6581 0.23344 0.000183243
9 2 1.76843 0.484277 -0.000143035
12 5 4.49529 0.286261 -0.00124436
13 6 5.50738 0.143716 0.00221086
ITEM: TIMESTEP
250000
ITEM: NUMBER OF ATOMS
13
ITEM: BOX BOUNDS pp pp pp
-7.0000000000000000e+00 7.0000000000000000e+00
-7.0000000000000000e+00 7.0000000000000000e+00
-1.0000000000000001e-01 1.0000000000000001e-01
ITEM: ATOMS id type x y z
5 2 -1.81723 0.00682146 -5.04141e-05
6 1 -1.001 -0.589832 -0.00064926
7 1 -0.141214 -0.0729252 0.00180716
8 1 0.861389 0.0548285 0.00178424
10 3 2.71094 0.101963 -0.00147124
11 4 3.75045 0.120014 0.000474341
1 6 -5.77708 0.0819394 0.000388727
2 5 -4.78365 -0.051936 -0.000765329
3 4 -3.76891 -0.0168663 -0.000371325
4 3 -2.80219 0.231506 0.000555575
9 2 1.78539 0.440857 -0.000500665
12 5 4.7461 -0.0284374 -0.00108514
13 6 5.72611 -0.165598 0.00227322
ITEM: TIMESTEP
260000
ITEM: NUMBER OF ATOMS
13
ITEM: BOX BOUNDS pp pp pp
-7.0000000000000000e+00 7.0000000000000000e+00
-7.0000000000000000e+00 7.0000000000000000e+00
-1.0000000000000001e-01 1.0000000000000001e-01
ITEM: ATOMS id type x y z
3 4 -3.79972 0.0800109 -0.00042757
5 2 -1.78345 -0.149292 0.000316599
6 1 -0.800137 -0.352406 -0.000589971
7 1 0.178603 -0.480387 0.00183673
12 5 4.64699 -0.169499 -0.00108008
13 6 5.64112 -0.119905 0.00195395
1 6 -5.81234 0.129497 -8.13792e-05
2 5 -4.82269 0.0184697 -0.000908497
4 3 -2.78775 0.00378926 0.000366616
8 1 0.718193 0.373609 0.00184913
9 2 1.72527 0.434431 -0.000629938
10 3 2.71214 0.303587 -0.00162
11 4 3.64184 -0.0361668 0.000306393
ITEM: TIMESTEP
270000
ITEM: NUMBER OF ATOMS
13
ITEM: BOX BOUNDS pp pp pp
-7.0000000000000000e+00 7.0000000000000000e+00
-7.0000000000000000e+00 7.0000000000000000e+00
-1.0000000000000001e-01 1.0000000000000001e-01
ITEM: ATOMS id type x y z
1 6 -5.64186 0.0118936 -0.000326715
4 3 -2.93676 -0.276117 0.000396623
5 2 -1.99841 -0.0332507 0.000563954
6 1 -1.00709 -0.180818 -0.000815466
7 1 -0.0218363 -0.292728 0.00146913
12 5 4.64765 -0.11427 -0.00137651
13 6 5.66147 -0.0670684 0.00209689
2 5 -4.64162 -0.0686294 -0.000961706
3 4 -3.73686 0.338708 -0.000237084
8 1 0.845475 0.156792 0.00184098
9 2 1.83248 0.275947 -0.000541514
10 3 2.80926 0.369988 -0.00171473
11 4 3.64044 -0.177001 0.000826248
ITEM: TIMESTEP
280000
ITEM: NUMBER OF ATOMS
13
ITEM: BOX BOUNDS pp pp pp
-7.0000000000000000e+00 7.0000000000000000e+00
-7.0000000000000000e+00 7.0000000000000000e+00
-1.0000000000000001e-01 1.0000000000000001e-01
ITEM: ATOMS id type x y z
1 6 -5.50325 -0.222972 -0.000263262
2 5 -4.51961 -0.00862918 -0.00128232
4 3 -3.07591 -0.111924 0.000262674
5 2 -2.09392 -0.175263 0.000135321
6 1 -1.10332 -0.113249 -0.00109259
7 1 -0.0856618 -0.112837 0.0018734
11 4 3.82299 0.0344617 0.000839167
12 5 4.7241 -0.337376 -0.00136055
3 4 -3.77152 0.618869 -0.000217428
8 1 0.884285 0.0999457 0.00218765
9 2 1.84205 -0.140227 -0.000486256
10 3 2.8695 -0.0314338 -0.0019219
13 6 5.42716 0.385342 0.00242218
ITEM: TIMESTEP
290000
ITEM: NUMBER OF ATOMS
13
ITEM: BOX BOUNDS pp pp pp
-7.0000000000000000e+00 7.0000000000000000e+00
-7.0000000000000000e+00 7.0000000000000000e+00
-1.0000000000000001e-01 1.0000000000000001e-01
ITEM: ATOMS id type x y z
1 6 -5.48544 -0.194951 -0.000499951
4 3 -3.01598 -0.224516 4.73339e-05
5 2 -2.02511 -0.275941 0.000276964
6 1 -1.02298 -0.389925 -0.00131752
7 1 -0.130831 0.0696006 0.00193477
9 2 1.8852 -0.16105 -0.000407575
10 3 2.88099 -0.32513 -0.00180722
12 5 4.58085 -0.195091 -0.00136018
2 5 -4.64913 0.368217 -0.0018254
3 4 -3.65669 0.499609 -0.000357303
8 1 0.88544 -0.00325458 0.00219039
11 4 3.71291 0.270617 0.00110352
13 6 5.38479 0.403217 0.00255236
ITEM: TIMESTEP
300000
ITEM: NUMBER OF ATOMS
13
ITEM: BOX BOUNDS pp pp pp
-7.0000000000000000e+00 7.0000000000000000e+00
-7.0000000000000000e+00 7.0000000000000000e+00
-1.0000000000000001e-01 1.0000000000000001e-01
ITEM: ATOMS id type x y z
4 3 -2.89985 -0.150167 4.62554e-05
5 2 -1.9213 -0.32799 0.000605621
6 1 -0.977672 -0.625262 -0.00157254
7 1 -0.0234556 -0.355788 0.00170709
8 1 0.955192 -0.20487 0.00244108
9 2 1.93518 -0.362453 -0.000629373
12 5 4.67958 -0.0790097 -0.00168173
1 6 -5.76214 0.287922 -0.000194546
2 5 -4.7861 0.488638 -0.00169746
3 4 -3.80845 0.235936 -0.00052493
10 3 2.73203 0.250673 -0.00226072
11 4 3.75377 0.262451 0.00141554
13 6 5.52495 0.480382 0.00235187
ITEM: TIMESTEP
310000
ITEM: NUMBER OF ATOMS
13
ITEM: BOX BOUNDS pp pp pp
-7.0000000000000000e+00 7.0000000000000000e+00
-7.0000000000000000e+00 7.0000000000000000e+00
-1.0000000000000001e-01 1.0000000000000001e-01
ITEM: ATOMS id type x y z
4 3 -3.04931 -0.42846 0.000193816
5 2 -2.02835 -0.441728 0.000603333
6 1 -1.02782 -0.630167 -0.00154649
7 1 -0.0556883 -0.482873 0.0017359
8 1 0.904198 -0.197236 0.00226898
9 2 1.9042 -0.0306617 -0.000281206
12 5 4.78389 -0.111325 -0.00122451
1 6 -5.69745 0.651803 -2.45333e-05
2 5 -4.75441 0.344835 -0.0014333
3 4 -3.78405 0.275681 -0.000823006
10 3 2.86317 0.205481 -0.0026373
11 4 3.83115 0.238724 0.00180852
13 6 5.48393 0.574458 0.00295936
ITEM: TIMESTEP
320000
ITEM: NUMBER OF ATOMS
13
ITEM: BOX BOUNDS pp pp pp
-7.0000000000000000e+00 7.0000000000000000e+00
-7.0000000000000000e+00 7.0000000000000000e+00
-1.0000000000000001e-01 1.0000000000000001e-01
ITEM: ATOMS id type x y z
4 3 -3.03424 -0.498408 0.000374415
5 2 -2.06937 -0.377946 0.000410103
6 1 -1.05039 -0.365114 -0.00168651
7 1 -0.0354847 -0.297141 0.00183333
8 1 0.974429 -0.30082 0.00241023
9 2 1.81973 0.251601 -0.000793581
12 5 4.70059 0.145926 -0.00157307
1 6 -5.6612 0.565311 8.82986e-05
2 5 -4.68769 0.263441 -0.00122194
3 4 -3.68215 0.277947 -0.000153933
10 3 2.7359 -0.132752 -0.00258657
11 4 3.68926 0.14702 0.00204367
13 6 5.65562 0.451614 0.00313775
ITEM: TIMESTEP
330000
ITEM: NUMBER OF ATOMS
13
ITEM: BOX BOUNDS pp pp pp
-7.0000000000000000e+00 7.0000000000000000e+00
-7.0000000000000000e+00 7.0000000000000000e+00
-1.0000000000000001e-01 1.0000000000000001e-01
ITEM: ATOMS id type x y z
4 3 -3.00686 -0.513808 0.00016835
5 2 -2.02151 -0.516933 0.000710963
6 1 -1.0267 -0.549449 -0.00129056
7 1 -0.0165979 -0.553432 0.00199878
8 1 0.876805 -0.0810389 0.0023577
9 2 1.87476 0.0809572 -0.00107798
12 5 4.7218 -0.167668 -0.00170152
1 6 -5.55171 0.834643 -2.93575e-05
2 5 -4.7052 0.28861 -0.00111894
3 4 -3.70974 0.175046 -0.00043911
10 3 2.87025 0.258167 -0.00255539
11 4 3.83925 0.289513 0.00263163
13 6 5.31937 0.624442 0.00359171
ITEM: TIMESTEP
340000
ITEM: NUMBER OF ATOMS
13
ITEM: BOX BOUNDS pp pp pp
-7.0000000000000000e+00 7.0000000000000000e+00
-7.0000000000000000e+00 7.0000000000000000e+00
-1.0000000000000001e-01 1.0000000000000001e-01
ITEM: ATOMS id type x y z
4 3 -2.8373 -0.552736 -0.000222529
5 2 -1.98347 -1.0704 0.00029101
6 1 -0.998639 -0.862077 -0.00168009
7 1 -0.0100673 -0.683365 0.00191294
8 1 0.736753 -0.016719 0.00191642
12 5 4.62622 0.00103273 -0.00152871
1 6 -5.24843 1.15034 -8.05949e-05
2 5 -4.44281 0.580808 -0.0010267
3 4 -3.56513 0.128155 -0.000534427
9 2 1.67343 0.301753 -0.00110375
10 3 2.67038 0.425273 -0.00293805
11 4 3.62526 0.128028 0.00216019
13 6 5.37741 0.659595 0.00403642
ITEM: TIMESTEP
350000
ITEM: NUMBER OF ATOMS
13
ITEM: BOX BOUNDS pp pp pp
-7.0000000000000000e+00 7.0000000000000000e+00
-7.0000000000000000e+00 7.0000000000000000e+00
-1.0000000000000001e-01 1.0000000000000001e-01
ITEM: ATOMS id type x y z
4 3 -2.89864 -0.360587 -0.000529673
5 2 -1.98658 -0.761638 0.000312698
6 1 -0.973384 -0.940258 -0.00188913
7 1 0.00543434 -0.750704 0.00183605
8 1 0.844712 -0.188453 0.00156503
11 4 3.73307 0.0420173 0.00200806
2 5 -4.55275 0.66243 -0.00125371
3 4 -3.82798 -0.0249828 -0.000354752
9 2 1.75128 0.156754 -0.00124296
10 3 2.75363 0.171408 -0.00316045
12 5 4.71826 0.225365 -0.00135912
13 6 5.48022 0.851982 0.00371083
1 6 -5.44335 1.15318 0.000418119
ITEM: TIMESTEP
360000
ITEM: NUMBER OF ATOMS
13
ITEM: BOX BOUNDS pp pp pp
-7.0000000000000000e+00 7.0000000000000000e+00
-7.0000000000000000e+00 7.0000000000000000e+00
-1.0000000000000001e-01 1.0000000000000001e-01
ITEM: ATOMS id type x y z
3 4 -3.72586 0.0684966 -0.000139499
4 3 -2.8524 -0.404157 -0.000981161
5 2 -1.96267 -0.836021 0.000301519
6 1 -0.983272 -0.899141 -0.00195246
7 1 -0.0145706 -0.6126 0.00226406
8 1 0.976373 -0.466899 0.00132476
11 4 3.68375 -0.182652 0.00181469
2 5 -4.57158 0.58574 -0.00105114
9 2 1.80639 0.102038 -0.00146576
10 3 2.78957 0.244804 -0.0031823
12 5 4.55342 0.303994 -0.00100769
13 6 5.19764 1.08249 0.00372607
1 6 -5.30386 1.27924 0.000784271
ITEM: TIMESTEP
370000
ITEM: NUMBER OF ATOMS
13
ITEM: BOX BOUNDS pp pp pp
-7.0000000000000000e+00 7.0000000000000000e+00
-7.0000000000000000e+00 7.0000000000000000e+00
-1.0000000000000001e-01 1.0000000000000001e-01
ITEM: ATOMS id type x y z
3 4 -3.69599 0.0287807 0.000535828
4 3 -2.92948 -0.580045 -0.000917651
5 2 -1.91694 -0.544613 0.000660186
6 1 -0.993091 -0.958929 -0.001823
7 1 -0.0574176 -0.62685 0.00249486
8 1 0.902987 -0.369415 0.0015206
11 4 3.57593 -0.139888 0.00153049
2 5 -4.20537 0.877377 -0.001261
9 2 1.67426 0.232813 -0.00153811
10 3 2.65317 0.263953 -0.00330356
12 5 4.47083 0.253737 -0.0014107
13 6 5.23591 0.920139 0.0039996
1 6 -5.18162 0.871294 0.000798548
ITEM: TIMESTEP
380000
ITEM: NUMBER OF ATOMS
13
ITEM: BOX BOUNDS pp pp pp
-7.0000000000000000e+00 7.0000000000000000e+00
-7.0000000000000000e+00 7.0000000000000000e+00
-1.0000000000000001e-01 1.0000000000000001e-01
ITEM: ATOMS id type x y z
3 4 -3.84428 -0.124909 0.00081254
4 3 -2.84549 -0.111842 -0.000783716
5 2 -1.90238 -0.435463 0.000909027
6 1 -1.01553 -0.899724 -0.00217775
7 1 -0.0103659 -0.746916 0.00276508
8 1 0.879141 -0.315999 0.00138599
1 6 -5.15042 0.66799 0.000528839
2 5 -4.15542 0.831776 -0.0012854
9 2 1.67362 0.277218 -0.00153828
10 3 2.59181 -0.095173 -0.00324561
11 4 3.58922 0.0911351 0.00159787
12 5 4.58632 0.140249 -0.00136389
13 6 5.14268 0.947536 0.00446105
ITEM: TIMESTEP
390000
ITEM: NUMBER OF ATOMS
13
ITEM: BOX BOUNDS pp pp pp
-7.0000000000000000e+00 7.0000000000000000e+00
-7.0000000000000000e+00 7.0000000000000000e+00
-1.0000000000000001e-01 1.0000000000000001e-01
ITEM: ATOMS id type x y z
3 4 -3.67962 -0.121175 0.000678554
4 3 -2.68231 0.0127418 -0.00120959
5 2 -1.83121 -0.450265 0.000924703
6 1 -0.861574 -0.636082 -0.00263494
7 1 0.100012 -0.892452 0.00312086
8 1 0.819659 -0.186082 0.00128628
1 6 -5.3046 0.696561 0.000213904
2 5 -4.31313 0.633091 -0.000981693
9 2 1.68437 0.312837 -0.001295
10 3 2.53966 -0.211457 -0.00341594
11 4 3.49468 0.0384753 0.00160518
12 5 4.49057 0.131047 -0.00135593
13 6 5.12794 0.870407 0.00434858
ITEM: TIMESTEP
400000
ITEM: NUMBER OF ATOMS
13
ITEM: BOX BOUNDS pp pp pp
-7.0000000000000000e+00 7.0000000000000000e+00
-7.0000000000000000e+00 7.0000000000000000e+00
-1.0000000000000001e-01 1.0000000000000001e-01
ITEM: ATOMS id type x y z
5 2 -1.63969 -0.417861 0.00114495
6 1 -0.841029 -1.01146 -0.00269518
7 1 0.15707 -0.861884 0.00346065
8 1 0.759607 -0.0626903 0.00126692
10 3 2.39136 0.0321049 -0.00305492
1 6 -5.36689 0.584388 8.62936e-05
3 4 -3.48218 0.104981 0.000696521
2 5 -4.37774 0.508311 -0.00100552
4 3 -2.47893 0.099449 -0.00107014
9 2 1.55615 0.583011 -0.00179624
11 4 3.39531 -0.0867024 0.00136386
12 5 4.39981 -0.0223094 -0.00162234
13 6 5.05402 0.741249 0.00414551
ITEM: TIMESTEP
410000
ITEM: NUMBER OF ATOMS
13
ITEM: BOX BOUNDS pp pp pp
-7.0000000000000000e+00 7.0000000000000000e+00
-7.0000000000000000e+00 7.0000000000000000e+00
-1.0000000000000001e-01 1.0000000000000001e-01
ITEM: ATOMS id type x y z
4 3 -2.42557 -0.169155 -0.000810097
5 2 -1.45762 -0.460762 0.000927824
6 1 -0.806551 -1.22586 -0.0021968
7 1 0.0918892 -0.759304 0.00358671
8 1 0.50429 0.165186 0.00151458
11 4 3.27694 -0.100804 0.00139763
1 6 -5.31604 0.637768 -0.000132519
2 5 -4.2946 0.489376 -0.00107651
3 4 -3.3041 0.310645 0.000930046
9 2 1.48271 0.344195 -0.00140833
10 3 2.46569 0.461006 -0.00304875
12 5 4.28228 -0.0579941 -0.00144616
13 6 5.04384 0.601815 0.00364661
ITEM: TIMESTEP
420000
ITEM: NUMBER OF ATOMS
13
ITEM: BOX BOUNDS pp pp pp
-7.0000000000000000e+00 7.0000000000000000e+00
-7.0000000000000000e+00 7.0000000000000000e+00
-1.0000000000000001e-01 1.0000000000000001e-01
ITEM: ATOMS id type x y z
4 3 -2.53174 -0.104193 -0.000927405
5 2 -1.54601 -0.305455 0.00032009
6 1 -0.816674 -1.00421 -0.00274967
7 1 0.175355 -0.901271 0.00320536
8 1 0.627256 -0.00313387 0.00167424
11 4 3.43422 -0.272366 0.00167876
1 6 -5.36431 0.545329 -0.000558317
2 5 -4.34798 0.440692 -0.0012399
3 4 -3.3451 0.4318 0.000826838
9 2 1.55541 0.374627 -0.000630282
10 3 2.53373 0.117622 -0.0030923
12 5 4.39701 -0.0383796 -0.00163654
13 6 4.79016 0.901099 0.00329862
ITEM: TIMESTEP
430000
ITEM: NUMBER OF ATOMS
13
ITEM: BOX BOUNDS pp pp pp
-7.0000000000000000e+00 7.0000000000000000e+00
-7.0000000000000000e+00 7.0000000000000000e+00
-1.0000000000000001e-01 1.0000000000000001e-01
ITEM: ATOMS id type x y z
4 3 -2.77319 -0.24151 -0.00081688
5 2 -1.75141 -0.253 0.000657937
6 1 -0.831748 -0.588997 -0.00256935
7 1 0.144694 -0.826833 0.00342677
8 1 0.927024 -0.213837 0.0015765
11 4 3.59244 -0.410717 0.00171977
1 6 -5.29968 0.226751 -0.000621888
2 5 -4.49376 0.807948 -0.00141868
3 4 -3.59977 0.320411 0.000818948
9 2 1.74371 0.385853 -0.000647528
10 3 2.67248 -0.0173217 -0.00281781
12 5 4.46884 0.0152507 -0.00121257