LAMMPS (29 Aug 2024 - Update 1)
# FENE beadspring benchmark

units		lj
atom_style	full
dimension 2
special_bonds lj/coul 0.0 1.0 1.0
#atom_style	molecular
boundary        p p p
#special_bonds lj/coul 0.0 1.0 1.0
#comm_modify mode single cutoff 10.0

neighbor	1.0 bin
neigh_modify	every 1 delay 1

read_data       data_toy_protein3
Reading data file ...
  orthogonal box = (-7 -7 -0.1) to (7 7 0.1)
  1 by 1 by 1 MPI processor grid
  reading atoms ...
  13 atoms
  scanning bonds ...
  1 = max bonds/atom
  scanning angles ...
  1 = max angles/atom
  orthogonal box = (-7 -7 -0.1) to (7 7 0.1)
  1 by 1 by 1 MPI processor grid
  reading bonds ...
  12 bonds
  reading angles ...
  11 angles
Finding 1-2 1-3 1-4 neighbors ...
  special bond factors lj:    0        1        1       
  special bond factors coul:  0        1        1       
     2 = max # of 1-2 neighbors
     2 = max # of special neighbors
  special bonds CPU = 0.000 seconds
  read_data CPU = 0.001 seconds
#bond_style      fene
#bond_coeff	* 30.0 2.5 3.0 3.0


bond_style      harmonic
bond_coeff      1 50 1
#bond_coeff      2 0.3 0.5

#angle_style cosine
#angle_coeff * 100

angle_style harmonic
angle_coeff 1 0.015 180
angle_coeff 2 0.015 180
#angle_coeff 2 0.015 55


#angle_style quartic
#angle_coeff 1 129.1948 56.8726 -25.9442 -14.2221


pair_style	lj/cut 1.25
pair_coeff      1 1 0.0 0.0
pair_coeff      2 2 0.06 1.0
pair_coeff	3 3 0.3 1.0
pair_coeff      4 4 0.3 1.0
pair_coeff      5 5 0.3 1.0
pair_coeff      6 6 0.3 1.0


pair_modify	shift yes

fix 10 all enforce2d
fix 11 all momentum 100 linear 1 1 1 angular

comm_modify mode single cutoff 5.0 vel yes


dump            atomDump all custom 10000 dump.atom.lammpstrj id type x y z

# Define minimization parameters
#variable etol equal 0.0
#variable ftol equal 5.0e-10
#variable maxiter equal 100000
#variable maxeval equal 20000

#minimize ${etol} ${ftol} ${maxiter} ${maxeval}

#velocity all create 0.02 4928459 mom yes rot yes dist gaussian

thermo          1000
timestep	0.001

thermo_style custom step temp press vol pe bonds

# equil
fix 1 all nve
fix 2 all langevin 0.02 0.02 1 904297
#fix 3 all press/berendsen iso 0.0 0.0 1.0
#dump            atomDump all custom 1000 dump.atom.lammpstrj id type x y z

# For PLUMED2
#fix 22 all plumed plumedfile plumed.dat outfile plumed.out

run             2000000000

CITE-CITE-CITE-CITE-CITE-CITE-CITE-CITE-CITE-CITE-CITE-CITE-CITE

Your simulation uses code contributions which should be cited:

- Type Label Framework: https://doi.org/10.1021/acs.jpcb.3c08419

@Article{Gissinger24,
 author = {Jacob R. Gissinger, Ilia Nikiforov, Yaser Afshar, Brendon Waters, Moon-ki Choi, Daniel S. Karls, Alexander Stukowski, Wonpil Im, Hendrik Heinz, Axel Kohlmeyer, and Ellad B. Tadmor},
 title = {Type Label Framework for Bonded Force Fields in LAMMPS},
 journal = {J. Phys. Chem. B},
 year =    2024,
 volume =  128,
 number =  13,
 pages =   {3282–-3297}
}

CITE-CITE-CITE-CITE-CITE-CITE-CITE-CITE-CITE-CITE-CITE-CITE-CITE

Generated 15 of 15 mixed pair_coeff terms from geometric mixing rule
Neighbor list info ...
  update: every = 1 steps, delay = 1 steps, check = yes
  max neighbors/atom: 2000, page size: 100000
  master list distance cutoff = 2.25
  ghost atom cutoff = 5
  binsize = 1.125, bins = 13 13 1
  1 neighbor lists, perpetual/occasional/extra = 1 0 0
  (1) pair lj/cut, perpetual
      attributes: half, newton on
      pair build: half/bin/newton
      stencil: half/bin/2d
      bin: standard
Per MPI rank memory allocation (min/avg/max) = 6.428 | 6.428 | 6.428 Mbytes
   Step          Temp          Press          Volume         PotEng        Bonds   
         0   0              0              196            0                     12 
      1000   0.011158978   -0.015884305    196            0.0056124975          12 
      2000   0.014304219   -0.017158893    196            0.013966008           12 
      3000   0.025201113   -0.0023604332   196            0.0050105236          12 
      4000   0.017281508    0.0035469703   196            0.0048856425          12 
      5000   0.021683234   -0.017776364    196            0.012697743           12 
      6000   0.021003924   -0.0084758889   196            0.011475349           12 
      7000   0.021831586   -0.0022350861   196            0.0094926693          12 
      8000   0.017920867   -0.0069133973   196            0.009571992           12 
      9000   0.013580128   -0.0071195994   196            0.0086036912          12 
     10000   0.023464096   -0.01449731     196            0.011430706           12 
     11000   0.017396282   -0.0042960102   196            0.0073058353          12 
     12000   0.024106611    0.012869222    196            0.019591681           12 
     13000   0.019905434   -0.0022860858   196            0.011040497           12 
     14000   0.01947268    -0.010254794    196            0.012776367           12 
     15000   0.011200157   -0.023339628    196            0.020594906           12 
     16000   0.017307348   -0.02336692     196            0.0099489019          12 
     17000   0.025964746    0.0059182118   196            0.014910863           12 
     18000   0.031487118   -0.0037784018   196            0.0051663849          12 
     19000   0.029736191   -0.031832526    196            0.021341569           12 
     20000   0.020322475    0.016224053    196            0.018948041           12 
     21000   0.02125434     0.018630023    196            0.017368993           12 
     22000   0.017417307   -0.011294494    196            0.011619765           12 
     23000   0.016537888   -0.0068138728   196            0.012597874           12 
     24000   0.016598571   -0.0077651711   196            0.009057402           12 
     25000   0.025331266    0.017707884    196            0.0089589631          12 
     26000   0.020174482    0.00025674632  196            0.0090633266          12 
     27000   0.019684577   -0.014303738    196            0.0071335316          12 
     28000   0.012104304   -0.011447483    196            0.0065199418          12 
     29000   0.020346503   -0.0053583595   196            0.0078025891          12 
     30000   0.013043197    0.0010471283   196            0.006129226           12 
     31000   0.017153754   -0.014133596    196            0.0089100731          12 
     32000   0.022223978   -0.0059066428   196            0.0073928203          12 
     33000   0.028644796    0.0087010393   196            0.00872331            12 
     34000   0.019170998    0.0017450164   196            0.011646975           12 
     35000   0.019317772   -0.017639427    196            0.0065118984          12 
     36000   0.010182582    0.010475822    196            0.0062874382          12 
     37000   0.0094507625  -0.0057339988   196            0.010337816           12 
     38000   0.014351315   -0.019344441    196            0.01296018            12 
     39000   0.014154923   -0.018771879    196            0.011048902           12 
     40000   0.033138269    0.0085101568   196            0.012114243           12 
     41000   0.0071778003  -0.012255884    196            0.01924436            12 
     42000   0.022033221   -0.004484492    196            0.010229254           12 
     43000   0.014808031   -0.0010420379   196            0.019094971           12 
     44000   0.020666751   -0.0084196099   196            0.0085932683          12 
     45000   0.023472287   -0.012781189    196            0.011241515           12 
     46000   0.011638637   -0.033289549    196            0.013835102           12 
     47000   0.015474244   -0.0042688837   196            0.0069478442          12 
     48000   0.022854876   -0.013882745    196            0.0093955748          12 
     49000   0.010879709    4.5765733e-05  196            0.015003849           12 
     50000   0.018962405    0.015987601    196            0.014981632           12 
     51000   0.033189762   -0.020800844    196            0.022653586           12 
     52000   0.032706187   -0.00089308904  196            0.012703217           12 
     53000   0.015545874   -0.019997082    196            0.019199549           12 
     54000   0.024608186   -0.0055392932   196            0.0082061124          12 
     55000   0.026394655    0.021044269    196            0.0088023989          12 
     56000   0.019371608    0.0049602527   196            0.015352226           12 
     57000   0.019927615   -0.017339936    196            0.012660955           12 
     58000   0.026607235    0.002841085    196            0.0065947623          12 
     59000   0.016045689   -0.011555343    196            0.0084201684          12 
     60000   0.022686872   -0.0060662268   196            0.010194267           12 
     61000   0.02078213     0.014604927    196            0.018421638           12 
     62000   0.021720779   -0.011661169    196            0.010274461           12 
     63000   0.013552451   -0.00039039834  196            0.012078052           12 
     64000   0.021781755    0.0017025468   196            0.010621473           12 
     65000   0.017133779   -0.0025942534   196            0.025257888           12 
     66000   0.016835365    0.014864196    196            0.009604792           12 
     67000   0.020594608   -0.023457725    196            0.016001809           12 
     68000   0.013035812    0.0099029933   196            0.01190151            12 
     69000   0.020407491    0.0050716234   196            0.0083234407          12 
     70000   0.023620933   -0.016855337    196            0.013581344           12 
     71000   0.020455658   -0.0086679392   196            0.012502489           12 
     72000   0.028280494    0.0038304632   196            0.012473327           12 
     73000   0.024175427   -0.018408137    196            0.014719009           12 
     74000   0.02273396     0.015275046    196            0.018294156           12 
     75000   0.024793981   -0.0050258545   196            0.015291317           12 
     76000   0.024214837    0.0023897088   196            0.013341734           12 
     77000   0.015510341    0.021397662    196            0.012708086           12 
     78000   0.015172812   -0.0030828845   196            0.0081564613          12 
     79000   0.013316899    0.0027787343   196            0.0081906044          12 
     80000   0.02778586     0.0023999334   196            0.010629823           12 
     81000   0.019680838   -0.0210305      196            0.015525339           12 
     82000   0.036340896    0.019011949    196            0.014831564           12 
     83000   0.01927948    -0.012263946    196            0.010397961           12 
     84000   0.010402859    0.016133514    196            0.025303501           12 
     85000   0.014557612   -0.02476337     196            0.019324919           12 
     86000   0.019565304    0.0051411398   196            0.0126583             12 
     87000   0.02653924    -0.010068295    196            0.012927845           12 
     88000   0.023218479    0.0063779262   196            0.010132515           12 
     89000   0.020324437    0.00010391232  196            0.011264178           12 
     90000   0.019500088    0.009865974    196            0.013268327           12 
     91000   0.015392987    0.0019867227   196            0.010641146           12 
     92000   0.011282247   -0.0096991145   196            0.014582545           12 
     93000   0.014119013    0.0078699262   196            0.016652849           12 
     94000   0.022657585    0.00087810451  196            0.019087235           12 
     95000   0.021445063   -0.0024661158   196            0.012831569           12 
     96000   0.017045891    0.01092919     196            0.015645758           12 
     97000   0.021998425   -0.0018093975   196            0.011844088           12 
     98000   0.020206673    0.00029613578  196            0.013783581           12 
     99000   0.014693496   -0.0042917838   196            0.013645986           12 
    100000   0.0098752204   0.0038565287   196            0.012595524           12 
    101000   0.01691107     0.0011977369   196            0.010260464           12 
    102000   0.019138818   -0.0025135644   196            0.014776632           12 
    103000   0.020038433   -0.0043343937   196            0.014068765           12 
    104000   0.018721632    0.013644576    196            0.018039244           12 
    105000   0.018213567   -0.0020321445   196            0.016273343           12 
    106000   0.016928881   -0.004139498    196            0.0094498548          12 
    107000   0.014927118    0.008492094    196            0.014271315           12 
    108000   0.0063650042   1.4736035e-05  196            0.0090939761          12 
    109000   0.016408074    5.7698979e-05  196            0.0091986387          12 
    110000   0.014395983   -0.010278363    196            0.014001063           12 
    111000   0.010470233   -0.018084589    196            0.010407079           12 
    112000   0.017425974    0.0072239711   196            0.01100449            12 
    113000   0.014188333    0.014506831    196            0.011884178           12 
    114000   0.015045932   -0.016294376    196            0.013142577           12 
    115000   0.01350962    -0.01093196     196            0.014963419           12 
    116000   0.024213353    0.011672191    196            0.013502387           12 
    117000   0.022749693    0.0068728016   196            0.014332532           12 
    118000   0.025066206    0.018881928    196            0.015457195           12 
    119000   0.023532592   -0.035802645    196            0.019621847           12 
    120000   0.01492507    -0.012978293    196            0.017537356           12 
    121000   0.011926367    0.016527285    196            0.011380767           12 
    122000   0.017509703    0.00045788956  196            0.013386391           12 
    123000   0.017262338   -0.003143467    196            0.014268013           12 
    124000   0.023382154    0.018234433    196            0.01636907            12 
    125000   0.018280866   -0.00139578     196            0.019750258           12 
    126000   0.030564168   -0.014223897    196            0.01005753            12 
    127000   0.025477048    0.0012246454   196            0.017597701           12 
    128000   0.017654712   -0.0011971097   196            0.016236935           12 
    129000   0.02250509    -0.0058299186   196            0.013316443           12 
    130000   0.016834046   -0.012231605    196            0.022605631           12 
    131000   0.019205283    0.0084557301   196            0.015544984           12 
    132000   0.02879169    -0.0035688845   196            0.0087206602          12 
    133000   0.012064878    0.0014013041   196            0.013864678           12 
    134000   0.02344631     0.0051149236   196            0.010488067           12 
    135000   0.019761112   -0.0078054687   196            0.01366078            12 
    136000   0.027666176   -0.0069659768   196            0.007924323           12 
    137000   0.018732985    0.00082260272  196            0.013733961           12 
    138000   0.015261613    0.0036788678   196            0.01814893            12 
    139000   0.01894995    -0.00023755716  196            0.015865134           12 
    140000   0.02077201    -0.009478639    196            0.01569992            12 
    141000   0.019317721    0.012842667    196            0.01667706            12 
    142000   0.017059234   -0.019980169    196            0.023939932           12 
    143000   0.023697004    0.028023442    196            0.024373098           12 
    144000   0.0304159      0.0046702965   196            0.010188575           12 
    145000   0.021146537   -0.017597236    196            0.014837621           12 
    146000   0.026811335    0.023973367    196            0.013079075           12 
    147000   0.013891349    0.019556365    196            0.015749196           12 
    148000   0.022035254   -0.012411491    196            0.014817557           12 
    149000   0.018124014    0.0020248703   196            0.012165262           12 
    150000   0.014714274   -0.0034578878   196            0.017904585           12 
    151000   0.013807484   -0.0098680512   196            0.010855129           12 
    152000   0.01202733     0.028469849    196            0.017058275           12 
    153000   0.021094333    0.017896876    196            0.0095598473          12 
    154000   0.014691507   -0.0020671579   196            0.013682812           12 
    155000   0.015848912   -0.00053767777  196            0.01330032            12 
    156000   0.01461529    -0.0016168926   196            0.012014335           12 
    157000   0.013884787   -0.0014926846   196            0.012549808           12 
    158000   0.013308747    0.0083113432   196            0.016878397           12 
    159000   0.031694492   -0.013993588    196            0.014135233           12 
    160000   0.023421842   -0.0018142649   196            0.014138272           12 
    161000   0.019395371    0.007985675    196            0.012264471           12 
    162000   0.018832129    0.0065129196   196            0.010743316           12 
    163000   0.013921904    0.00052386797  196            0.01040763            12 
    164000   0.0093707139  -0.0030660825   196            0.015638148           12 
    165000   0.011065528   -0.013179927    196            0.017545503           12 
    166000   0.021345616   -0.015758513    196            0.013124213           12 
    167000   0.024430988   -0.014898233    196            0.012140816           12 
    168000   0.016563488   -0.011559236    196            0.014037004           12 
    169000   0.015813799   -0.00085572311  196            0.011668581           12 
    170000   0.019428534   -0.0040850699   196            0.013189212           12 
    171000   0.013000176    0.015360084    196            0.015568365           12 
    172000   0.016185474    0.015179967    196            0.013884966           12 
    173000   0.011743643    0.0041333344   196            0.011659142           12 
    174000   0.012487789   -0.013693351    196            0.0137633             12 
    175000   0.015991543    0.013634887    196            0.01086304            12 
    176000   0.019757883   -0.0039790793   196            0.012229839           12 
    177000   0.022610403    0.015135496    196            0.021326463           12 
    178000   0.026773674   -0.016820291    196            0.012077375           12 
    179000   0.017083594   -0.0097967385   196            0.016255132           12 
    180000   0.017274694    0.0023012777   196            0.01790026            12 
    181000   0.012057664    0.0037374903   196            0.012723273           12 
    182000   0.02638529    -0.010351066    196            0.015822962           12 
    183000   0.021409234    0.035671993    196            0.016945859           12 
    184000   0.016705671   -0.025541148    196            0.019745776           12 
    185000   0.025100534    0.014972517    196            0.012485112           12 
    186000   0.022016215    0.018194184    196            0.012970078           12 
    187000   0.025188767   -0.011945625    196            0.012627516           12 
    188000   0.019187821   -0.00089523021  196            0.0075935953          12 
    189000   0.015861973    0.0034305942   196            0.020075598           12 
    190000   0.024734476   -0.014461378    196            0.017287881           12 
    191000   0.014426427    0.0074471812   196            0.011795824           12 
    192000   0.02284757    -0.0037109699   196            0.013023312           12 
    193000   0.014780774   -0.002309939    196            0.012359481           12 
    194000   0.017945461   -0.0022094999   196            0.0069484066          12 
    195000   0.018454202    0.0070267609   196            0.010031676           12 
    196000   0.023003807    0.0021969643   196            0.017643379           12 
    197000   0.019759444   -0.0035652761   196            0.0098475171          12 
    198000   0.013964889    0.00335232     196            0.01026316            12 
    199000   0.021709506    0.010275723    196            0.014669124           12 
    200000   0.015948694    0.0095206486   196            0.013799029           12 
    201000   0.017415287   -0.016218646    196            0.010639487           12 
    202000   0.020187994    0.022952155    196            0.013799332           12 
    203000   0.025340394    0.0021048153   196            0.01075963            12 
    204000   0.017647277   -0.0065671913   196            0.0078611549          12 
    205000   0.028291746    0.0065628166   196            0.0072967311          12 
    206000   0.030329745   -5.915081e-05   196            0.012987218           12 
    207000   0.0159579     -0.0052461718   196            0.013601343           12 
    208000   0.018063062    0.010700062    196            0.010748508           12 
    209000   0.019247285   -0.0060993389   196            0.010096686           12 
    210000   0.013276235   -0.014148937    196            0.014552459           12 
    211000   0.013360933    0.025837364    196            0.011796864           12 
    212000   0.020613881    0.0071351707   196            0.0072395579          12 
    213000   0.031857169   -0.024779535    196            0.016491655           12 
    214000   0.018680714   -0.016634958    196            0.013351434           12 
    215000   0.021827278    0.011104265    196            0.011025154           12 
    216000   0.011195527   -0.0042035403   196            0.0093841635          12 
    217000   0.018779576   -0.023466866    196            0.011399224           12 
    218000   0.015203651   -0.014211439    196            0.012413141           12 
    219000   0.016839501   -0.0028982727   196            0.013820972           12 
    220000   0.018626774   -0.0030531301   196            0.010696628           12 
    221000   0.014818794   -0.0077212861   196            0.0059584584          12 
    222000   0.023938105    0.012799085    196            0.013298793           12 
    223000   0.017646      -0.011624481    196            0.0086500193          12 
    224000   0.013338599    0.02090739     196            0.0082179147          12 
    225000   0.013753749   -0.02262442     196            0.018283381           12 
    226000   0.01645379     0.00090194423  196            0.0094456893          12 
    227000   0.024854649   -0.00077670249  196            0.0082726654          12 
    228000   0.013024535   -0.0040195549   196            0.021470459           12 
    229000   0.025823601    0.025624919    196            0.011153677           12 
    230000   0.021730508   -0.0046666598   196            0.0082833989          12 
    231000   0.018143768    0.0019211295   196            0.0091179596          12 
    232000   0.016332803    0.011720849    196            0.015686866           12 
    233000   0.017970397   -0.016277798    196            0.012194825           12 
    234000   0.019589958    0.002016863    196            0.0060639548          12 
    235000   0.017378758   -0.0068967454   196            0.011254217           12 
    236000   0.012825893    0.0034736581   196            0.012059394           12 
    237000   0.01428663    -0.011592851    196            0.011341474           12 
    238000   0.015443536    0.0030984144   196            0.017008772           12 
    239000   0.014131888   -0.022740217    196            0.019344485           12 
    240000   0.012789367    0.001149872    196            0.013745191           12 
    241000   0.012948879   -0.0091252391   196            0.014197058           12 
    242000   0.024138729   -0.011632806    196            0.013105434           12 
    243000   0.029888508   -0.014172953    196            0.015888471           12 
    244000   0.031597492   -0.0027028672   196            0.0079503099          12 
    245000   0.016593409    0.013198979    196            0.01148831            12 
    246000   0.017922005   -0.0071044653   196            0.014891381           12 
    247000   0.020210772    0.017137198    196            0.014830487           12 
    248000   0.017697179   -0.0048104222   196            0.015116474           12 
    249000   0.014203665   -0.00091307477  196            0.010053618           12 
    250000   0.031450527   -0.017607771    196            0.012978557           12 
    251000   0.025673806    0.012782872    196            0.01075095            12 
    252000   0.019433396    0.01483705     196            0.010402052           12 
    253000   0.011472984   -0.00045086736  196            0.014196336           12 
    254000   0.016780934    0.0062091053   196            0.0078811469          12 
    255000   0.018438892   -0.013626011    196            0.010273943           12 
    256000   0.022181944   -0.0036417504   196            0.015150398           12 
    257000   0.03058394     0.0017353284   196            0.0059732659          12 
    258000   0.013490153   -0.01430802     196            0.0098384973          12 
    259000   0.019847106    0.0021690606   196            0.014042512           12 
    260000   0.018052704   -0.013725113    196            0.00976069            12 
    261000   0.027626328    0.0013970093   196            0.0062828184          12 
    262000   0.025472846   -2.5163518e-05  196            0.0098811929          12 
    263000   0.026853758    0.01360172     196            0.01944393            12 
    264000   0.0253422     -0.019637717    196            0.013403352           12 
    265000   0.01285559     0.0026037839   196            0.00958931            12 
    266000   0.0096532983  -0.011564791    196            0.0095122406          12 
    267000   0.0091000928  -0.00034978585  196            0.013709595           12 
    268000   0.014268028   -0.0073511599   196            0.010304302           12 
    269000   0.013825776   -0.00065730161  196            0.012256348           12 
    270000   0.015207215    0.015792523    196            0.013659367           12 
    271000   0.021936995    0.0023264868   196            0.023868463           12 
    272000   0.031883957   -0.026408929    196            0.017232237           12 
    273000   0.017845163   -0.004119805    196            0.014647489           12 
    274000   0.021035857   -0.0017008667   196            0.016385539           12 
    275000   0.017747478   -0.02006393     196            0.014216554           12 
    276000   0.019101164    0.0048046712   196            0.011627228           12 
    277000   0.022314112    0.024356402    196            0.012448079           12 
    278000   0.021693348   -0.0088292346   196            0.017579778           12 
    279000   0.035576338    0.024792661    196            0.01257469            12 
    280000   0.025212641    0.015813471    196            0.026157328           12 
    281000   0.016370698   -0.0026999776   196            0.027017203           12 
    282000   0.024137503    0.0011332326   196            0.01463461            12 
    283000   0.018713129   -0.01101775     196            0.012755896           12 
    284000   0.022759391    0.0024553308   196            0.017926435           12 
    285000   0.02084797     0.016513183    196            0.016960156           12 
    286000   0.02261454    -0.00042303924  196            0.016823234           12 
    287000   0.020771092   -0.017023667    196            0.020125042           12 
    288000   0.029575198    0.0018098305   196            0.019117042           12 
    289000   0.032480288    0.018224177    196            0.024168096           12 
    290000   0.017112929   -0.0075918884   196            0.016733637           12 
    291000   0.01495472     0.0055156849   196            0.013152053           12 
    292000   0.022567491    0.013715316    196            0.01108738            12 
    293000   0.017543134   -0.0041005891   196            0.021347676           12 
    294000   0.017823364    0.023981316    196            0.016864976           12 
    295000   0.017257136   -0.022657127    196            0.015908221           12 
    296000   0.028287412   -0.0030784763   196            0.0087267006          12 
    297000   0.020337512    0.0081471206   196            0.014415143           12 
    298000   0.01796404    -0.00068750021  196            0.016145277           12 
    299000   0.025624345   -0.011314366    196            0.028229585           12 
    300000   0.013499769    0.0056807196   196            0.0090593108          12 
    301000   0.016540838    0.011504593    196            0.011116242           12 
    302000   0.018092681    0.008639155    196            0.010117159           12 
    303000   0.015903418    0.00073922441  196            0.010408901           12 
    304000   0.0096391983   0.016984136    196            0.015532676           12 
    305000   0.021785813   -0.0018842016   196            0.014024137           12 
    306000   0.020406626   -0.025779825    196            0.026965192           12 
    307000   0.018844832    0.0022020064   196            0.022148944           12 
    308000   0.021016056    0.012968068    196            0.017300092           12 
    309000   0.022196774    0.00043914669  196            0.019207227           12 
    310000   0.018287603    0.0074413596   196            0.019067056           12 
    311000   0.030190759   -0.014476042    196            0.018739635           12 
    312000   0.035659101   -0.014861576    196            0.014079479           12 
    313000   0.023957555    0.012696514    196            0.013310095           12 
    314000   0.018219201    0.013539891    196            0.012878954           12 
    315000   0.018403471   -0.017190464    196            0.015236592           12 
    316000   0.020082395   -0.0062817696   196            0.011148314           12 
    317000   0.014517479    0.0074278327   196            0.012418295           12 
    318000   0.020020474   -0.0043814759   196            0.014124524           12 
    319000   0.021843266    0.012295116    196            0.011165477           12 
    320000   0.019683533   -0.01613919     196            0.01352997            12 
    321000   0.017827551   -0.0081349861   196            0.01187966            12 
    322000   0.017212439    0.016245081    196            0.015934842           12 
    323000   0.021930105    0.029569588    196            0.016995474           12 
    324000   0.020724891   -0.022002713    196            0.018249407           12 
    325000   0.016712042   -0.00063238392  196            0.013940958           12 
    326000   0.016835467    0.010865944    196            0.019307188           12 
    327000   0.027965698    0.0020789032   196            0.016734766           12 
    328000   0.02345599    -0.018187951    196            0.028778276           12 
    329000   0.023400427    0.002185731    196            0.013304482           12 
    330000   0.020848234    0.0077196396   196            0.012244623           12 
    331000   0.017358008   -0.026578492    196            0.012804458           12 
    332000   0.016944613   -0.018927393    196            0.014879656           12 
    333000   0.017675271   -0.0047478273   196            0.0099781848          12 
    334000   0.015337156    0.0032132519   196            0.010510586           12 
    335000   0.021845692   -0.0076770417   196            0.01963729            12 
    336000   0.015625591    0.018413257    196            0.01153186            12 
    337000   0.016377561   -0.0090302563   196            0.010382794           12 
    338000   0.01972773     0.0031352596   196            0.0095781902          12 
    339000   0.017804053   -0.02388488     196            0.014111206           12 
    340000   0.020625369    0.005280909    196            0.0048944268          12 
    341000   0.024867374    0.0076165542   196            0.009998157           12 
    342000   0.0095474418  -0.0073179812   196            0.0056025358          12 
    343000   0.01264976    -0.015138278    196            0.013239632           12 
    344000   0.021332484    0.0083581348   196            0.012071439           12 
    345000   0.020337326    0.00069345409  196            0.018443526           12 
    346000   0.013097955   -0.0077746853   196            0.011557763           12 
    347000   0.018748169    0.01936176     196            0.011409143           12 
    348000   0.020443751    0.001516691    196            0.011919203           12 
    349000   0.020722665   -0.0023523581   196            0.0081954414          12 
    350000   0.017798196    0.0041518781   196            0.011379085           12 
    351000   0.023176145   -0.02789409     196            0.0087869399          12 
    352000   0.012760915   -0.011097691    196            0.014086667           12 
    353000   0.01277558     0.013955201    196            0.010470255           12 
    354000   0.015902521    0.0050468233   196            0.012587928           12 
    355000   0.015702569   -0.0099952872   196            0.013540398           12 
    356000   0.016832606    0.012658886    196            0.0079399779          12 
    357000   0.015370819    0.016744481    196            0.0082788426          12 
    358000   0.017067177   -0.0098057399   196            0.017799995           12 
    359000   0.018259647   -0.0016018097   196            0.0089504745          12 
    360000   0.017756992    0.0076439757   196            0.0065277274          12 
    361000   0.013416404   -0.018281396    196            0.0096343781          12 
    362000   0.011968508    0.0038786646   196            0.0065322799          12 
    363000   0.012587504    0.017270998    196            0.012274565           12 
    364000   0.01565733     0.0095993355   196            0.013753911           12 
    365000   0.012910004    5.2879867e-05  196            0.016276923           12 
    366000   0.016986941   -0.021747071    196            0.008071635           12 
    367000   0.028833791    0.0096118139   196            0.014369449           12 
    368000   0.020461585    0.012527561    196            0.0096539698          12 
    369000   0.015135633   -0.023425659    196            0.019707224           12 
    370000   0.019256701    0.021992731    196            0.016871194           12 
    371000   0.035029469   -0.0079396816   196            0.0092064425          12 
    372000   0.028394848    0.0031870284   196            0.010462499           12 
    373000   0.019922526   -0.016559023    196            0.012345183           12 
    374000   0.017002457    0.0062823283   196            0.011363462           12 
    375000   0.016845603    0.010698116    196            0.010686716           12 
    376000   0.012231623    0.0037357072   196            0.010520185           12 
    377000   0.01475227    -0.0095555967   196            0.014156454           12 
    378000   0.021338227   -0.0067407653   196            0.01105628            12 
    379000   0.019354531   -0.010101165    196            0.018319313           12 
    380000   0.017542777    0.0027072674   196            0.012496046           12 
    381000   0.010727707    0.0015622761   196            0.013698556           12 
    382000   0.016174684    0.0014485706   196            0.016182546           12 
    383000   0.009282053    0.0001510039   196            0.015815478           12 
    384000   0.025587759    0.0081968503   196            0.015652557           12 
    385000   0.013539365    0.0012824357   196            0.012893404           12 
    386000   0.013101542   -0.0080651725   196            0.014496253           12 
    387000   0.014723584   -0.010939817    196            0.014264843           12 
    388000   0.020362115    0.0096669321   196            0.014618016           12 
    389000   0.0091632134  -0.027561443    196            0.018786048           12 
    390000   0.021495153    0.023789665    196            0.015340945           12 
    391000   0.015192534   -0.00028921367  196            0.01360379            12 
    392000   0.011955451   -0.0039974488   196            0.014887654           12 
    393000   0.021591035    0.0031654809   196            0.010833168           12 
    394000   0.014908336   -0.026067651    196            0.015389522           12 
    395000   0.020819131    0.0057261457   196            0.016911852           12 
    396000   0.015872502   -0.006829948    196            0.021013004           12 
    397000   0.018139042   -0.0035098646   196            0.01606237            12 
    398000   0.020277869    0.015987467    196            0.016087959           12 
    399000   0.014111513   -0.015562755    196            0.025940329           12 
    400000   0.025358289   -0.0033338697   196            0.010962494           12 
    401000   0.021940146    0.014906097    196            0.012340141           12 
    402000   0.029525853    0.010456041    196            0.010897366           12 
    403000   0.019800763   -0.037378615    196            0.020845522           12 
    404000   0.0209907      0.036285961    196            0.024104679           12 
    405000   0.031284535   -0.028968359    196            0.017360378           12 
    406000   0.012661163    0.0081233281   196            0.018992337           12 
    407000   0.012493532    0.0055652375   196            0.020264814           12 
    408000   0.031319652   -0.0055546812   196            0.020494235           12 
    409000   0.022045258   -0.0066727133   196            0.020349381           12 
    410000   0.015235633   -0.016182164    196            0.013261488           12 
    411000   0.012740699    0.0057822533   196            0.0096696             12 
    412000   0.0090882852   0.0077304627   196            0.0072685981          12 
    413000   0.010062116   -0.013879037    196            0.0081214944          12 
    414000   0.019296064    0.02401264     196            0.014905972           12 
    415000   0.018353128   -0.01666152     196            0.017952378           12 
    416000   0.022184221   -0.0032621833   196            0.010196866           12 
    417000   0.018200486   -0.021401867    196            0.013439056           12 
    418000   0.012039962    0.01251736     196            0.0091972082          12 
    419000   0.019215874   -0.032158986    196            0.01596874            12 
    420000   0.014887841   -0.0052192813   196            0.014137983           12 
    421000   0.013576876   -0.00090391005  196            0.016695805           12 
    422000   0.022052102   -0.012307264    196            0.014589632           12 
    423000   0.01999545     0.01176942     196            0.014789081           12 
    424000   0.020577185   -0.01926327     196            0.017134909           12 
    425000   0.020994187    0.00023571708  196            0.0085483091          12 
    426000   0.018247789    0.0059664183   196            0.010874632           12 
    427000   0.025265306   -0.016453482    196            0.024275843           12 
    428000   0.019383836    0.014160268    196            0.01445675            12 
    429000   0.01915273    -0.01578348     196            0.010698696           12 
    430000   0.014641133   -0.0019104759   196            0.014885656           12 
    431000   0.026360955    0.0012700439   196            0.012379278           12 
    432000   0.016222119   -0.0085334478   196            0.020633993           12 
    433000   0.022928289   -0.0076684919   196            0.016070833           12 
    434000   0.027365842    0.0054188372   196            0.017740714           12 
    435000   0.03134347    -0.0019684757   196            0.015892672           12 
    436000   0.031060814    0.024343588    196            0.023783972           12 
    437000   0.018939305    0.01609442     196            0.020755301           12 
    438000   0.017787406   -0.013443359    196            0.014944341           12 
    439000   0.021658764   -0.002018436    196            0.027671354           12 
    440000   0.010739259   -0.01634643     196            0.024675562           12 
    441000   0.018597917    0.00062445126  196            0.016594003           12 
    442000   0.018356543    0.0056485534   196            0.015458265           12 
    443000   0.015337951   -0.0042862039   196            0.015758942           12 
    444000   0.013580815    0.015329809    196            0.016645044           12 
    445000   0.013870954   -0.0020603266   196            0.016127294           12 
    446000   0.028372143   -0.00064043471  196            0.013973688           12 
    447000   0.0084211939   0.0089884999   196            0.014808354           12 
    448000   0.016580515   -0.016793352    196            0.019323655           12 
    449000   0.027731405   -0.035255387    196            0.027005129           12 
    450000   0.018723834    0.0027357284   196            0.020814833           12 
    451000   0.022753336    0.028473137    196            0.015421093           12 
    452000   0.021475814   -0.0030722542   196            0.012219499           12 
    453000   0.023856691    0.0074252503   196            0.013980918           12 
    454000   0.011339703    0.003632572    196            0.015428669           12 
    455000   0.014783024    0.012890721    196            0.0072815642          12 
    456000   0.017675301   -0.0057609945   196            0.02331896            12 
    457000   0.011529874    0.0093400556   196            0.016088927           12 
    458000   0.019116554    0.0062160059   196            0.017863804           12 
    459000   0.019140857    0.015046187    196            0.014855916           12 
    460000   0.01981782    -0.016454215    196            0.015458521           12 
    461000   0.026169348    0.016804037    196            0.014377271           12 
    462000   0.014618853    0.0030897444   196            0.015802193           12 
    463000   0.007490376   -0.015326094    196            0.013608359           12 
    464000   0.013361838    0.0061444951   196            0.015493479           12 
    465000   0.013998382   -0.013523483    196            0.017949961           12 
    466000   0.019386298    0.014277285    196            0.017855191           12 
    467000   0.018581716   -0.01828997     196            0.01606435            12 
    468000   0.013479492    0.021900638    196            0.017565535           12 
    469000   0.015626215   -0.0052090337   196            0.019789348           12 
    470000   0.016965187   -0.0096381383   196            0.011835243           12 
    471000   0.0095262358  -0.019882367    196            0.013021574           12 
    472000   0.016642669    0.00011292706  196            0.011985993           12 
    473000   0.014737403   -0.0087680134   196            0.01382508            12 
    474000   0.026238308    0.01489009     196            0.012261061           12 
    475000   0.014407708   -0.0095218965   196            0.022033521           12 
    476000   0.017956382    0.002913901    196            0.023037752           12 
    477000   0.033093122    0.00072968728  196            0.021921521           12 
    478000   0.015473965    0.012547872    196            0.015625719           12 
    479000   0.012215515   -0.022008625    196            0.018182021           12 
    480000   0.014768146    0.0073180136   196            0.019211461           12 
    481000   0.012340627    0.0083467387   196            0.015642165           12 
    482000   0.014751054    0.0034010546   196            0.027273706           12 
    483000   0.024204524   -0.010529991    196            0.021438632           12 
    484000   0.016716509    0.010585279    196            0.014944522           12 
    485000   0.01292726     0.0048879807   196            0.018123884           12 
    486000   0.012261307    0.0031976982   196            0.015858223           12 
    487000   0.014242055   -0.0084013871   196            0.020250803           12 
    488000   0.018522794    0.015784099    196            0.018779718           12 
    489000   0.018061063    0.0058086856   196            0.015230344           12 
    490000   0.02393532    -0.010967948    196            0.017295972           12 
    491000   0.034487262    0.0013206788   196            0.024908463           12 
    492000   0.014847812   -0.014070089    196            0.015042686           12 
    493000   0.025534837   -0.021158574    196            0.022179141           12 
    494000   0.015363539   -0.013930437    196            0.023989961           12 
    495000   0.018825124    0.0053330389   196            0.01449671            12 
    496000   0.023133959   -0.0028629413   196            0.016310785           12 
    497000   0.012265583   -0.0037287136   196            0.021432515           12 
    498000   0.016812621   -0.0060654031   196            0.017849202           12 
    499000   0.016621407    0.0054294405   196            0.013799788           12 
    500000   0.014524668    0.016007841    196            0.015208574           12 
    501000   0.020933345    0.0053864462   196            0.027002178           12 
    502000   0.028060148    0.029483269    196            0.020249986           12 
    503000   0.028665378   -0.012235728    196            0.021030154           12 
    504000   0.025209541    0.014878525    196            0.025877755           12 
    505000   0.019970255    0.016598953    196            0.014970433           12 
    506000   0.015550382   -0.025606526    196            0.017292772           12 
    507000   0.022094981    0.0071301216   196            0.019527494           12 
    508000   0.017041362   -0.0075539897   196            0.016866327           12 
    509000   0.023302574   -0.010147223    196            0.018602775           12 
    510000   0.01917036     0.015348824    196            0.019341405           12 
    511000   0.017109814   -0.0082195464   196            0.014762819           12 
    512000   0.022663892   -0.0074903645   196            0.010912518           12 
    513000   0.024007723    0.0015452913   196            0.0091788059          12 
    514000   0.02481265     0.0090900362   196            0.0073933904          12 
    515000   0.010768462    0.01707712     196            0.011794632           12 
    516000   0.012050335    0.011248024    196            0.0077121877          12 
    517000   0.013550607    0.034049746    196            0.01362538            12 
    518000   0.010981527    0.0040320715   196            0.0080298051          12 
    519000   0.019012953    0.02406982     196            0.0082417158          12 
    520000   0.014985372    0.0095104925   196            0.0092558248          12 
    521000   0.02050575     0.010656552    196            0.0072233848          12 
    522000   0.010760734   -0.005319341    196            0.019682748           12 
    523000   0.015708985    0.012899498    196            0.0091514317          12 
    524000   0.014653176    0.0098969351   196            0.0067276157          12 
    525000   0.017605564   -0.0035193816   196            0.0066190655          12 
    526000   0.01382106    -0.029993351    196            0.0077833805          12 
    527000   0.017815709    0.0066124822   196            0.014443391           12 
    528000   0.021864091    0.005753298    196            0.0072021878          12 
    529000   0.025584183    0.0057224      196            0.006191511           12 
    530000   0.023389017    0.011038807    196            0.012310872           12 
    531000   0.0095027274   0.0087034983   196            0.013722677           12 
    532000   0.0104858      0.014773768    196            0.012093794           12 
    533000   0.022390395    0.0071948201   196            0.0072394179          12 
    534000   0.011833476   -0.019356652    196            0.010913638           12 
    535000   0.013634425    0.019776444    196            0.0062269377          12 
    536000   0.017867259    0.0028128332   196            0.0062967223          12 
    537000   0.029086965   -0.016233108    196            0.0081536506          12 
    538000   0.019640665    0.0041506272   196            0.016584337           12 
    539000   0.019062452   -4.3759405e-05  196            0.0090481922          12 
    540000   0.013760173    0.013649381    196            0.012972167           12 
    541000   0.021570356   -0.00098188245  196            0.0051221182          12 
    542000   0.032427006   -0.016225665    196            0.005082867           12 
    543000   0.017851117    0.026322835    196            0.0065150459          12 
    544000   0.023819909    0.0033424617   196            0.020062599           12 
    545000   0.022740699    0.0045530159   196            0.01819967            12 
    546000   0.01705863    -0.0070631034   196            0.019721334           12 
    547000   0.027771409    0.01292364     196            0.0094648802          12 
    548000   0.020688792    0.0036646241   196            0.011917865           12 
    549000   0.010569457   -0.0159352      196            0.018489498           12 
    550000   0.020885471    0.031210941    196            0.015752393           12 
    551000   0.01774322    -0.0055967903   196            0.021827047           12 
    552000   0.012869907   -0.0093145202   196            0.0099281728          12 
    553000   0.0086359717  -0.01051152     196            0.013053492           12 
    554000   0.013793998    0.014402214    196            0.014705589           12 
    555000   0.022919672    0.0060807657   196            0.017279885           12 
    556000   0.0078198254  -0.013138799    196            0.011320527           12 
    557000   0.0093903577   0.01237317     196            0.0099861634          12 
    558000   0.016174742   -0.019934702    196            0.0099466118          12 
    559000   0.01392553     0.010415082    196            0.016860098           12 
    560000   0.022821979   -0.00069473529  196            0.012945182           12 
    561000   0.019202508    0.0094986854   196            0.0078106161          12 
    562000   0.014919934   -0.0053983334   196            0.0093492884          12 
    563000   0.01545156    -0.0057209302   196            0.010938885           12 
    564000   0.025831609    0.019763456    196            0.010759919           12 
    565000   0.01637526     0.0012413955   196            0.012562993           12 
    566000   0.025873042   -0.004041705    196            0.0096053062          12 
    567000   0.022686409   -0.012964486    196            0.0082107834          12 
    568000   0.032931631   -0.0056393583   196            0.0052534512          12 
    569000   0.016319042    0.0091907515   196            0.0092874558          12 
    570000   0.026521586   -0.0071484546   196            0.0090821543          12 
    571000   0.026330268   -0.017069316    196            0.0065178927          12 
    572000   0.019682478    0.0097706139   196            0.01517593            12 
    573000   0.017852175    0.0064877045   196            0.009230294           12 
    574000   0.017280773    0.001258843    196            0.012042634           12 
    575000   0.013078823    0.019311102    196            0.011692519           12 
    576000   0.016528773   -0.0091524093   196            0.0086672703          12 
    577000   0.018465936   -0.023346386    196            0.0058685789          12 
    578000   0.025537461    0.00032907029  196            0.0091990874          12 
    579000   0.02736962     0.025231565    196            0.0040035695          12 
    580000   0.017650324    0.0018102812   196            0.0038603127          12 
    581000   0.021283052   -0.0061473679   196            0.0068283809          12 
    582000   0.025999125    0.012930949    196            0.010797923           12 
    583000   0.016503118    0.010950021    196            0.0095368309          12 
    584000   0.011591931    0.01272651     196            0.012169481           12 
    585000   0.022672867   -0.013826197    196            0.012093914           12 
    586000   0.017470122    0.013570429    196            0.01637653            12 
    587000   0.024807512   -0.016049223    196            0.011663639           12 
    588000   0.017928052    0.012569664    196            0.016356277           12 
    589000   0.013647161   -0.009850492    196            0.0042736036          12 
    590000   0.022441587    0.009521456    196            0.0040974114          12 
    591000   0.025424127    0.015574857    196            0.0047115758          12 
    592000   0.014575272    0.00068781209  196            0.0056383931          12 
    593000   0.025176252    0.0045817452   196            0.0021535807          12 
    594000   0.012337824    0.023590573    196            0.0094857175          12 
    595000   0.015113465   -0.012843054    196            0.010320915           12 
    596000   0.019078587    0.010076661    196            0.011990969           12 
    597000   0.021525578   -0.0034803396   196            0.0088464322          12 
    598000   0.014652798   -0.015445468    196            0.011366683           12 
    599000   0.01543104    -0.007310432    196            0.0085822198          12 
    600000   0.012899465   -0.019221862    196            0.0062939633          12 
    601000   0.0083680119  -0.015084153    196            0.0073685485          12 
    602000   0.012254888    0.0077243932   196            0.0050191393          12 
    603000   0.022798513    0.018343996    196            0.0078205085          12 
    604000   0.0060423     -0.01993858     196            0.009940986           12 
    605000   0.022798522    0.015853078    196            0.010308947           12 
    606000   0.018590636   -0.013906538    196            0.00359778            12 
    607000   0.019191704   -0.02804996     196            0.010531662           12 
    608000   0.032873097   -0.024743113    196            0.012216643           12 
    609000   0.012484431    0.010032701    196            0.013685687           12 
    610000   0.024007119    0.019335598    196            0.0099015293          12 
    611000   0.020298406   -0.026040312    196            0.012968315           12 
    612000   0.020479427   -0.0041761229   196            0.011859429           12 
    613000   0.02555911    -0.0033921281   196            0.017208502           12 
    614000   0.016774746   -0.029351766    196            0.022143973           12 
    615000   0.029144038    0.011600192    196            0.013512387           12 
    616000   0.035489006    0.015769677    196            0.015518951           12 
    617000   0.022582753   -0.020704628    196            0.0098833925          12 
    618000   0.019810478   -0.00083184586  196            0.004440503           12 
    619000   0.015833529   -0.011105121    196            0.016911499           12 
    620000   0.023239742   -0.0086119376   196            0.008225662           12 
    621000   0.014520955   -0.013730699    196            0.012304026           12 
    622000   0.017074061    0.00096636836  196            0.00753455            12 
    623000   0.015624951   -0.020317795    196            0.012163462           12 
    624000   0.012642901    0.016979745    196            0.015997866           12 
    625000   0.025741517    0.0040077104   196            0.013376225           12 
    626000   0.019866794    0.0051866504   196            0.012733094           12 
    627000   0.015573368    0.012319974    196            0.016013451           12 
    628000   0.023910947   -0.022278552    196            0.016787789           12 
    629000   0.019219904   -0.015713181    196            0.011551569           12 
    630000   0.017479873   -0.029632656    196            0.011671634           12 
    631000   0.020214261   -0.015830319    196            0.014311265           12 
    632000   0.012091142    0.00067134448  196            0.014092981           12 
    633000   0.0097429508  -0.017729085    196            0.012266768           12 
    634000   0.017054856   -0.003450338    196            0.013691172           12 
    635000   0.019980503   -0.011153989    196            0.010940036           12 
    636000   0.018363665   -0.023876492    196            0.012539659           12 
    637000   0.016309564    0.020559019    196            0.011541453           12 
    638000   0.014406394    0.01115272     196            0.012255276           12 
    639000   0.020636741   -0.014786958    196            0.01888454            12 
    640000   0.016506805    0.0038358662   196            0.014184163           12 
    641000   0.016592117   -0.0068184211   196            0.01126146            12 
    642000   0.018082436   -0.0069210873   196            0.012588087           12 
    643000   0.016988836   -0.020029895    196            0.015785445           12 
    644000   0.016744536   -0.0024798365   196            0.012624369           12 
    645000   0.022014661    0.0086096975   196            0.019515642           12 
    646000   0.035986571    0.0098622811   196            0.013461241           12 
    647000   0.025897812   -0.021589508    196            0.018638698           12 
    648000   0.012708191    0.0037423423   196            0.0064289211          12 
    649000   0.02591902    -0.0061501394   196            0.0081502758          12 
    650000   0.02466779    -0.0041784824   196            0.010152018           12 
    651000   0.030861359   -0.016806297    196            0.010040328           12 
    652000   0.015000454   -0.014975187    196            0.011993859           12 
    653000   0.020892884    0.0026160944   196            0.010215573           12 
    654000   0.022919011   -0.0060025036   196            0.006139596           12 
    655000   0.017678811   -0.015990006    196            0.019932893           12 
    656000   0.022814402   -0.00052958114  196            0.0098815711          12 
    657000   0.021204376   -0.011670106    196            0.015044816           12 
    658000   0.026979777   -0.0085597215   196            0.0044141203          12 
    659000   0.023426962    0.0074218238   196            0.014350104           12 
    660000   0.018646255   -0.0010541041   196            0.0080266582          12 
    661000   0.013546143   -0.0090084451   196            0.0040381745          12 
    662000   0.014968559   -0.0063703863   196            0.0047150052          12 
    663000   0.011740184    0.0052547489   196            0.0058074483          12 
    664000   0.033560941    0.0022765806   196            0.0075454489          12 
    665000   0.030008022    0.014372417    196            0.0076646267          12 
    666000   0.014867024    0.0092938055   196            0.0023950089          12 
    667000   0.0073463668   0.0073236586   196            0.0048270336          12 
    668000   0.013383223   -0.007121519    196            0.0019531879          12 
    669000   0.016220741   -0.030314765    196            0.0054821702          12 
    670000   0.019575       0.01146318     196            0.0013923853          12 
    671000   0.013000065   -0.011920844    196            0.0095071778          12 
    672000   0.02744166     0.0079624803   196            0.0066096092          12 
    673000   0.01308783    -0.030654023    196            0.015662651           12 
    674000   0.018570998    0.004386326    196            0.013415753           12 
    675000   0.014518806   -0.0075926836   196            0.0065139495          12 
    676000   0.021502355    0.0024759197   196            0.011806658           12 
    677000   0.014087732    0.031654658    196            0.0045612761          12 
    678000   0.020483371    0.00039851892  196            0.0014799906          12 
    679000   0.012765058    0.0027595365   196            0.0047750756          12 
    680000   0.023475737    0.0052661557   196            0.0029071634          12 
    681000   0.018088579   -0.0017690615   196            0.0049445698          12 
    682000   0.017825236    0.023981402    196            0.012258657           12 
    683000   0.0095335384   0.0047309095   196            0.013193486           12 
    684000   0.021987596    0.0015349245   196            0.0099868953          12 
    685000   0.021329964   -0.0019978101   196            0.0050162931          12 
    686000   0.020994472   -0.014595916    196            0.0021848495          12 
    687000   0.024020188   -0.030268673    196            0.012258205           12 
    688000   0.024365928    0.0068076282   196            0.0097025889          12 
    689000   0.012916596    0.0060541382   196            0.0097846298          12 
    690000   0.018179599   -0.019159532    196            0.0060551818          12 
    691000   0.022775955   -0.0050903718   196            0.0077931184          12 
    692000   0.025925204   -0.0074276134   196            0.008221635           12 
    693000   0.018631805   -0.0081794214   196            0.0041719703          12 
    694000   0.015432255    0.014030369    196            0.0047720854          12 
    695000   0.018496388   -0.021013394    196            0.010058133           12 
    696000   0.023785145    0.010694956    196            0.0082042816          12 
    697000   0.016951387   -0.0095456065   196            0.010419266           12 
    698000   0.015284408    0.010310601    196            0.011594305           12 
    699000   0.016311711   -0.017021916    196            0.012955061           12 
    700000   0.022074319   -0.016808531    196            0.012848952           12 
    701000   0.016978984   -0.010735048    196            0.021997606           12 
    702000   0.013947445    0.0042672037   196            0.0041539011          12 
    703000   0.012775532   -0.0077998689   196            0.014139644           12 
    704000   0.031953619    0.0017543601   196            0.010585432           12 
    705000   0.0072152131   0.0051861674   196            0.018449658           12 
    706000   0.023826915   -0.00080927804  196            0.018013795           12 
    707000   0.017019753    0.0074409977   196            0.015814085           12 
    708000   0.00975966    -0.02685187     196            0.016287342           12 
    709000   0.030469724    0.0052181213   196            0.016451569           12 
    710000   0.015544496   -0.0062898923   196            0.014575769           12 
    711000   0.025239349    0.0050015602   196            0.016432581           12 
    712000   0.019148014   -0.00013181455  196            0.016243614           12 
    713000   0.018891731   -0.0015150074   196            0.011253268           12 
    714000   0.0099228631  -0.016888525    196            0.019009212           12 
    715000   0.01894707     0.0032183041   196            0.014700065           12 
    716000   0.01674138     0.0040978286   196            0.01296222            12 
    717000   0.018850012    0.0032999641   196            0.011706559           12 
    718000   0.018332331   -0.0042781964   196            0.012669472           12 
    719000   0.027554736   -0.004274426    196            0.014361221           12 
    720000   0.007780284   -0.0055434174   196            0.022803432           12 
    721000   0.017097306    0.0044081105   196            0.014430955           12 
    722000   0.012504539    0.013444484    196            0.015603394           12 
    723000   0.018722283   -0.0059318949   196            0.012038924           12 
    724000   0.016313133    0.013503915    196            0.0161459             12 
    725000   0.016170056   -0.011210663    196            0.013544499           12 
    726000   0.021718538    0.0010121384   196            0.018570563           12 
    727000   0.020776939   -0.0057690485   196            0.026833169           12 
    728000   0.02130133    -0.0069752019   196            0.02014099            12 
    729000   0.020519267    0.0067424196   196            0.017104886           12 
    730000   0.016099508    0.015167328    196            0.015656618           12 
    731000   0.025384959    0.0026932409   196            0.014876586           12 
    732000   0.015720004   -0.015932699    196            0.014727218           12 
    733000   0.0070770286   0.016143416    196            0.015583998           12 
    734000   0.018342162   -0.0085685648   196            0.013325277           12 
    735000   0.014108634    0.0034709477   196            0.016622625           12 
    736000   0.020202972   -0.022177258    196            0.015569438           12 
    737000   0.018022099    0.0019864641   196            0.013520817           12 
    738000   0.011592629   -0.017174528    196            0.01572175            12 
    739000   0.0069763272   0.002468181    196            0.010057177           12 
    740000   0.019841726    0.0028707809   196            0.0082388547          12 
    741000   0.015346803    0.0026776433   196            0.013644581           12 
    742000   0.020143356   -0.016553233    196            0.01337813            12 
    743000   0.024572301    0.0085156269   196            0.016818767           12 
    744000   0.022102167   -0.0065202049   196            0.019965978           12 
    745000   0.014048672    0.026126574    196            0.029342377           12 
    746000   0.020474318   -0.012093489    196            0.022201633           12 
    747000   0.012139372   -0.00058246219  196            0.013922473           12 
    748000   0.015319265    0.0053290953   196            0.0093384489          12 
    749000   0.020044068    0.002120488    196            0.015470439           12 
    750000   0.0176433      0.0082019955   196            0.012005419           12 
    751000   0.019658066    0.013087688    196            0.0047911013          12 
    752000   0.018177774    0.0033886269   196            0.0089174163          12 
    753000   0.015696938   -0.011140625    196            0.010837448           12 
    754000   0.023134576   -0.00026186289  196            0.014650643           12 
    755000   0.022358658   -0.014037781    196            0.0098270225          12 
    756000   0.023518789    0.019017102    196            0.013496674           12 
    757000   0.0198236      0.01157247     196            0.0080475152          12 
    758000   0.0093113005   0.0012190371   196            0.01224718            12 
    759000   0.013517979   -0.0083064363   196            0.011765447           12 
    760000   0.014745123    0.0075093206   196            0.011765701           12 
    761000   0.017700912   -0.0067167599   196            0.0082077265          12 
    762000   0.017482776   -0.017028722    196            0.011012348           12 
    763000   0.020401664    0.010140577    196            0.011394225           12 
    764000   0.017836936   -0.0021177001   196            0.012622743           12 
    765000   0.018457019   -0.0030324387   196            0.0074466055          12 
    766000   0.018580045    0.005145019    196            0.010220715           12 
    767000   0.029904578   -0.0074565788   196            0.017570617           12 
    768000   0.025163476    0.0038493003   196            0.02221055            12 
    769000   0.02902704     0.0024162577   196            0.010156091           12 
    770000   0.019350338   -0.0089899602   196            0.010052991           12 
    771000   0.02906306     0.0052133238   196            0.0038227158          12 
    772000   0.018873112    0.012031445    196            0.0054942796          12 
    773000   0.021204929    0.01177818     196            0.0059105124          12 
    774000   0.018788408   -0.021942641    196            0.0054603104          12 
    775000   0.011657701    0.014539417    196            0.0076339062          12 
    776000   0.022377597    0.014581266    196            0.012055483           12 
    777000   0.012723818    0.00259237     196            0.0028484673          12 
    778000   0.027236691    0.01063895     196            0.00047802553         12 
    779000   0.024641418   -0.006102525    196            0.015059964           12 
    780000   0.021977141   -0.00037911266  196            0.00653209            12 
    781000   0.024763102   -0.019838549    196            0.01035077            12 
    782000   0.027357726   -0.015672519    196            0.01077741            12 
    783000   0.015999793   -0.0018019581   196            0.0042967658          12 
    784000   0.018458226    0.0057663682   196            0.0050332431          12 
    785000   0.025909302    0.0082456333   196            0.0031804198          12 
    786000   0.01298031    -0.002729986    196            0.0071845824          12 
    787000   0.016505776   -0.0036142555   196            0.011361564           12 
    788000   0.018984318    0.0055540677   196            0.0094750272          12 
    789000   0.023099512   -0.0078373857   196            0.0092555169          12 
    790000   0.0093820108  -0.0053200855   196            0.0057540023          12 
    791000   0.016448498    0.0013190159   196            0.01281993            12 
    792000   0.011225537    0.0034903158   196            0.015946534           12 
    793000   0.01455093     0.00023539947  196            0.024395787           12 
    794000   0.020691844    0.0058131341   196            0.0091752879          12 
    795000   0.028590725   -0.0018001185   196            0.0084529685          12 
    796000   0.021115541    0.015816838    196            0.013229828           12 
    797000   0.018812484    0.0042021426   196            0.010016059           12 
    798000   0.0087127293   0.013774934    196            0.011846765           12 
    799000   0.031416291    0.0060207716   196            0.011973981           12 
    800000   0.018702949    0.01083441     196            0.020741877           12 
    801000   0.016606756   -0.01727379     196            0.015404123           12 
    802000   0.016917961    0.0031511661   196            0.0077852081          12 
    803000   0.020307355    0.0019421854   196            0.010576431           12 
    804000   0.032037388    0.0026614236   196            0.0019053196          12 
    805000   0.026480858   -0.00054763219  196            0.0037591943          12 
    806000   0.019023864    0.0061186329   196            0.0050238691          12 
    807000   0.018251955   -0.0049063278   196            0.0074420622          12 
    808000   0.016499603   -0.011502889    196            0.007786134           12 
    809000   0.017291614    0.0043300118   196            0.0063168852          12 
    810000   0.021642626   -0.010302088    196            0.00065352449         12 
    811000   0.017797161   -0.017064576    196            0.0063257997          12 
    812000   0.022140601    0.0076599517   196            0.0041381742          12 
    813000   0.034919502    0.0037142588   196            0.0020154125          12 
    814000   0.022369158   -0.00706563     196            0.017396305           12 
    815000   0.017698471    0.013765587    196            0.0041723858          12 
    816000   0.016542597    0.01206726     196            0.0053653168          12 
    817000   0.018199419    0.0047745653   196            0.0080282557          12 
    818000   0.015331825   -0.02736565     196            0.0060519993          12 
    819000   0.019502721    0.002138464    196            0.0057540791          12 
    820000   0.013266235    0.017463113    196            0.0069253923          12 
    821000   0.0087741251   0.0026410748   196            0.0034051846          12 
    822000   0.015613529    0.0076889284   196            0.0070594574          12 
    823000   0.017303611   -0.0099523559   196            0.0021965057          12 
    824000   0.016032598    0.0096272855   196            0.0056824987          12 
    825000   0.020770799   -0.020441813    196            0.011284474           12 
    826000   0.013595391    0.0038358829   196            0.02653487            12 
    827000   0.026593761   -0.0023970975   196            0.01246628            12 
    828000   0.011729229    0.0063988576   196            0.0093290412          12 
    829000   0.012941979    0.020771088    196            0.0084640379          12 
    830000   0.011930916   -0.008231828    196            0.012037699           12 
    831000   0.013422133   -0.010898403    196            0.009546033           12 
    832000   0.030508002   -0.0010047139   196            0.0088892629          12 
    833000   0.018086571    0.0027484047   196            0.009074526           12 
    834000   0.016973791   -5.4502316e-05  196            0.0074946449          12 
    835000   0.020659665    0.0005926053   196            0.0061093012          12 
    836000   0.01887829    -0.023127497    196            0.015993793           12 
    837000   0.017763549    0.025436205    196            0.01533167            12 
    838000   0.023057639   -0.0065600608   196            0.020019083           12 
    839000   0.011593876    0.0060156611   196            0.012377332           12 
    840000   0.01487186     0.0068123332   196            0.01251271            12 
    841000   0.015447733    0.032308796    196            0.02325412            12 
    842000   0.024497789   -0.0029548472   196            0.015344473           12 
    843000   0.028484768    0.0078666051   196            0.0063024492          12 
    844000   0.014209638   -0.010141744    196            0.01001134            12 
    845000   0.024686753    0.0094252995   196            0.014426458           12 
    846000   0.014235153   -0.00080711254  196            0.012901986           12 
    847000   0.012355374    0.0015513366   196            0.013554757           12 
    848000   0.022455787   -0.0098233634   196            0.013095402           12 
    849000   0.021604665    0.014658233    196            0.018139452           12 
    850000   0.0091309342   0.015016634    196            0.011125506           12 
    851000   0.013406911   -0.0085193669   196            0.01295463            12 
    852000   0.021587777    0.0090593527   196            0.015742003           12 
    853000   0.010846155    0.018168632    196            0.01129803            12 
    854000   0.014221368    0.0042242449   196            0.016981964           12 
    855000   0.038957605   -0.028011455    196            0.022494531           12 
    856000   0.029533374   -0.002080357    196            0.012790179           12 
    857000   0.023204225    0.0078412053   196            0.016075337           12 
    858000   0.017369136    0.0097018962   196            0.017200671           12 
    859000   0.021918836   -0.0013545887   196            0.010906508           12 
    860000   0.03771674    -0.0066639226   196            0.0071814226          12 
    861000   0.025790673   -0.0043431069   196            0.0082290633          12 
    862000   0.009580393   -0.0030637638   196            0.0074056206          12 
    863000   0.013179289    0.0017666451   196            0.013539849           12 
    864000   0.018254507   -0.01203883     196            0.0088821063          12 
    865000   0.016946858   -0.016549137    196            0.007009678           12 
    866000   0.023106008    0.0079699257   196            0.0095889647          12 
    867000   0.016505894    0.03145855     196            0.011684655           12 
    868000   0.017033191   -0.0021390394   196            0.010203705           12 
    869000   0.022860915   -0.029581659    196            0.022652939           12 
    870000   0.029053254    0.011416656    196            0.011209012           12 
    871000   0.022412488    0.02732478     196            0.0082005369          12 
    872000   0.01048454    -0.0079373968   196            0.012220267           12 
    873000   0.012438244    0.0073066039   196            0.011214902           12 
    874000   0.024006365   -0.0010243298   196            0.0084537691          12 
    875000   0.018314359    0.0018367397   196            0.0079628241          12 
    876000   0.013080552    0.0054248773   196            0.0060930977          12 
    877000   0.018347739    0.0067009691   196            0.0012816971          12 
    878000   0.021262094    0.011526624    196            0.0089458855          12 
    879000   0.031353708    0.011691744    196            0.014271709           12 
    880000   0.020447388   -0.0089283935   196            0.003775421           12 
    881000   0.021900211   -0.0017263476   196            0.0082201554          12 
    882000   0.022702689    0.008971281    196            0.0094605823          12 
    883000   0.021609154   -0.0048978061   196            0.0039300702          12 
    884000   0.027195546    0.0043142129   196            0.015711363           12 
    885000   0.024387463    0.018706759    196            0.010883108           12 
    886000   0.023804095   -0.021100804    196            0.0099146082          12 
    887000   0.013336753   -0.014182479    196            0.0060402268          12 
    888000   0.019797231   -0.0051308664   196            0.0061549671          12 
    889000   0.013330815    0.0066059807   196            0.00505591            12 
    890000   0.012609726   -0.0076393893   196            0.0098570013          12 
    891000   0.013319745   -0.001810565    196            0.008048688           12 
    892000   0.016481629    0.02735099     196            0.012747435           12 
    893000   0.02193952    -0.027603242    196            0.013454989           12 
    894000   0.024348815   -0.0012992731   196            0.013766435           12 
    895000   0.017235309    0.0051086186   196            0.0073638622          12 
    896000   0.021550618   -0.0024463457   196            0.01164648            12 
    897000   0.025164699   -0.018394358    196            0.0082256388          12 
    898000   0.020091875   -0.010022647    196            0.01487452            12 
    899000   0.020087548   -0.00079761211  196            0.013679143           12 
    900000   0.019988248   -0.0066875201   196            0.018595511           12 
    901000   0.026000378    0.0032441546   196            0.013205277           12 
    902000   0.013937764   -0.013358081    196            0.020628533           12 
    903000   0.022950227   -0.020489612    196            0.010569748           12 
    904000   0.019944994   -0.0053294962   196            0.010704703           12 
    905000   0.022318948   -0.0015039422   196            0.011679112           12 
    906000   0.01457618     0.002965021    196            0.0097872395          12 
    907000   0.012402411   -0.0078202821   196            0.0078504308          12 
[...]
   2645000   0.018974682    0.0011779067   196            0.018053039           12 
   2646000   0.018153117    0.0073716987   196            0.012948993           12 
   2647000   0.021417806    0.017057508    196            0.014746408           12 
   2648000   0.021973823   -0.011710981    196            0.014597955           12 
   2649000   0.01803272    -0.011636692    196            0.014304028           12 
   2650000   0.017248926   -0.013109914    196            0.025584206           12 
   2651000   0.013908832   -0.0058826745   196            0.01192371            12 
   2652000   0.018991676    0.00033546163  196            0.010569244           12 
   2653000   0.01474162    -0.0026182043   196            0.014937              12 
   2654000   0.014092669    0.009169711    196            0.020386341           12 
   2655000   0.015483994    0.023526204    196            0.021814801           12 
   2656000   0.017652141   -0.011322827    196            0.025504033           12 
   2657000   0.016650865    0.023724146    196            0.023579906           12 
   2658000   0.019961744   -0.032598692    196            0.022539624           12 
   2659000   0.021043717    0.016766983    196            0.012816674           12 
   2660000   0.018650533    0.025159016    196            0.029381433           12 
   2661000   0.025312492    0.0066970357   196            0.014488843           12 
   2662000   0.011371769   -0.0062192797   196            0.020281132           12 
   2663000   0.017976881   -0.0013984906   196            0.016085375           12 
   2664000   0.017485177   -0.0047737031   196            0.011950999           12 
   2665000   0.0107208      0.0015135481   196            0.015151847           12 
   2666000   0.013389943    0.018235927    196            0.015512272           12 
   2667000   0.028813557    0.023584337    196            0.018729944           12 
   2668000   0.024781508    0.0060093291   196            0.022190727           12 
   2669000   0.017866475    0.021474889    196            0.022737018           12 
   2670000   0.028880257   -0.0027409869   196            0.013695078           12 
   2671000   0.016860501    0.0055074281   196            0.011212961           12 
   2672000   0.013317666    0.010443759    196            0.014697566           12 
   2673000   0.018112852    0.0053532479   196            0.014325037           12 
   2674000   0.013916733   -0.00088956988  196            0.023113656           12 
   2675000   0.023875191    0.004082271    196            0.011336148           12 
   2676000   0.02024485    -0.021833574    196            0.013007024           12 
   2677000   0.019914458    0.0034399581   196            0.019582436           12 
   2678000   0.013459956   -0.00946779     196            0.016741601           12 
   2679000   0.023048495    0.018650901    196            0.01983174            12 
   2680000   0.027652429   -0.0015657161   196            0.020519301           12 
   2681000   0.027029       0.015244768    196            0.018071514           12 
   2682000   0.023117235   -0.02432892     196            0.02991898            12 
   2683000   0.022912713    0.024246463    196            0.020276571           12 
   2684000   0.016549935   -0.0061660944   196            0.015347575           12 
   2685000   0.016808005   -0.0078001906   196            0.010991643           12 
   2686000   0.032309217    0.0091118686   196            0.0160791             12 
   2687000   0.017299803    0.024897391    196            0.019234391           12 
   2688000   0.024851224    0.0019238125   196            0.014167223           12 
   2689000   0.021884531    0.025195388    196            0.020664369           12 
   2690000   0.015652286   -0.018293747    196            0.01441353            12 
   2691000   0.015810071   -0.0081293647   196            0.029393335           12 
   2692000   0.013663241    0.017137062    196            0.019563269           12 
   2693000   0.013753648   -0.0046840175   196            0.011997596           12 
   2694000   0.012607862    0.014748316    196            0.014206878           12 
   2695000   0.030603665   -0.010516881    196            0.013252444           12 
   2696000   0.022565256    0.033964303    196            0.024433117           12 
   2697000   0.012828347   -0.0078790521   196            0.014406569           12 
   2698000   0.012991069    0.012729973    196            0.016131894           12 
   2699000   0.017344231   -0.0037647166   196            0.011754979           12 
   2700000   0.018500128   -0.0031061306   196            0.01814837            12 
   2701000   0.031114619   -0.014447286    196            0.024598033           12 
   2702000   0.014279513   -0.0031414667   196            0.017124696           12 
   2703000   0.01739538     0.029616649    196            0.020284943           12 
   2704000   0.016618588   -0.035786638    196            0.023893439           12 
   2705000   0.011623763    0.0033285357   196            0.019093122           12 
   2706000   0.019849057   -0.020677507    196            0.014987574           12 
   2707000   0.018872124    0.0021903408   196            0.010009821           12 
   2708000   0.023872752   -0.0042933958   196            0.015803957           12 
   2709000   0.012414707   -0.0020968494   196            0.019440178           12 
   2710000   0.025660276   -0.031661624    196            0.015915108           12 
   2711000   0.019316022    0.0031192397   196            0.0099544803          12 
   2712000   0.012645193   -0.0081917805   196            0.015346082           12 
   2713000   0.014003864   -0.0087075534   196            0.014851718           12 
   2714000   0.021705384    0.0058519413   196            0.012764058           12 
   2715000   0.020340388    0.001817862    196            0.011254478           12 
   2716000   0.026601245    0.0048618305   196            0.016293898           12 
   2717000   0.010008536    0.00016955846  196            0.0090362354          12 
   2718000   0.014497146   -0.0099463262   196            0.011517358           12 
   2719000   0.018291138   -0.0080924141   196            0.024177869           12 
   2720000   0.01900175    -0.0073749418   196            0.02183018            12 
   2721000   0.021331951   -0.0065498164   196            0.013904659           12 
   2722000   0.016572838   -0.01091149     196            0.013404111           12 
   2723000   0.029701332   -0.0069719511   196            0.027625673           12 
   2724000   0.028207634   -0.02658338     196            0.019595159           12 
   2725000   0.026160141    0.018159568    196            0.013965637           12 
   2726000   0.026245499   -0.031546322    196            0.02069444            12 
   2727000   0.022505923    0.012979311    196            0.019549347           12 
   2728000   0.030003234   -0.015471202    196            0.015253971           12 
   2729000   0.012677715   -0.0015211763   196            0.022475977           12 
   2730000   0.020160943   -0.0029574543   196            0.019742316           12 
   2731000   0.034867166    0.00083248627  196            0.013215807           12 
   2732000   0.026470757    0.016608234    196            0.015089866           12 
   2733000   0.016146272   -0.025960652    196            0.012619571           12 
   2734000   0.02359528    -0.012144277    196            0.01751989            12 
   2735000   0.016306189    0.0072923881   196            0.01158247            12 
   2736000   0.021847347   -0.010198331    196            0.014328703           12 
   2737000   0.020072251    0.0087053225   196            0.012355599           12 
   2738000   0.014523232   -0.0071756838   196            0.019845492           12 
   2739000   0.016858309   -2.9995367e-06  196            0.014743736           12 
   2740000   0.014668318   -0.0080834648   196            0.012954649           12 
   2741000   0.019645199    0.024894918    196            0.0092771024          12 
   2742000   0.006081029   -0.0027474935   196            0.0096609206          12 
   2743000   0.018407008    0.015679256    196            0.013768694           12 
   2744000   0.022253419   -0.0032030191   196            0.011571939           12 
   2745000   0.024025059    0.0026787097   196            0.016722107           12 
   2746000   0.01923227    -0.0019106218   196            0.018735321           12 
   2747000   0.020472563   -0.0024425797   196            0.012239068           12 
   2748000   0.026986395    0.0074276537   196            0.012299421           12 
   2749000   0.023857378   -0.012805974    196            0.012341457           12 
   2750000   0.020941176   -0.0012500472   196            0.01217936            12 
   2751000   0.017092773    0.011837039    196            0.013803267           12 
   2752000   0.016109975   -0.011919737    196            0.011393882           12 
   2753000   0.021004901    0.00035585739  196            0.012735829           12 
   2754000   0.014608719   -0.01019598     196            0.011165688           12 
   2755000   0.010614757    0.015853335    196            0.011361714           12 
   2756000   0.019176766   -0.0079029767   196            0.012973108           12 
   2757000   0.01423592    -0.0038641204   196            0.016236349           12 
   2758000   0.010821148   -0.012341212    196            0.015769441           12 
   2759000   0.015284198    0.021007182    196            0.018848025           12 
   2760000   0.015256342   -0.0064827314   196            0.015205706           12 
   2761000   0.018233964    0.00083096406  196            0.010970816           12 
   2762000   0.022604807    0.021564341    196            0.012066974           12 
   2763000   0.013249171   -0.0062290439   196            0.015117351           12 
   2764000   0.02195853     0.0083256617   196            0.015101483           12 
   2765000   0.022911184   -0.02590361     196            0.022022437           12 
   2766000   0.021900378   -0.012911045    196            0.012997849           12 
   2767000   0.013911941    0.0078478382   196            0.0096523348          12 
   2768000   0.019773201    0.022648549    196            0.013396649           12 
   2769000   0.013747335    0.0025109127   196            0.014846653           12 
   2770000   0.01883777     0.0097728446   196            0.017248991           12 
   2771000   0.01899138     0.014190199    196            0.01646271            12 
   2772000   0.0241116     -0.0016784209   196            0.011239248           12 
   2773000   0.017125871    0.02928534     196            0.018943464           12 
   2774000   0.014778068   -0.044929807    196            0.018257708           12 
   2775000   0.018988952    0.012787867    196            0.011702086           12 
   2776000   0.021056316    0.0021113835   196            0.014592856           12 
   2777000   0.016244932   -0.014262745    196            0.014542485           12 
   2778000   0.020469627    0.004567336    196            0.0089801698          12 
   2779000   0.013441181    0.0083870786   196            0.01052157            12 
   2780000   0.021872611   -0.0068566636   196            0.016289011           12 
   2781000   0.014385218    0.023868566    196            0.011519921           12 
   2782000   0.014748057   -0.0079039372   196            0.015683518           12 
   2783000   0.019009835    0.01369953     196            0.014764069           12 
   2784000   0.029430725    0.006391009    196            0.013359802           12 
   2785000   0.016607237   -0.00049812037  196            0.014423635           12 
   2786000   0.020678076    0.0085821551   196            0.017500841           12 
   2787000   0.032391506    0.018470472    196            0.013092401           12 
   2788000   0.018832098    0.0004288834   196            0.016264533           12 
   2789000   0.01243617     0.011188919    196            0.015785609           12 
   2790000   0.019604227   -0.010499326    196            0.018851607           12 
   2791000   0.010956348   -0.003290985    196            0.014998139           12 
   2792000   0.017870847    0.009645639    196            0.016539103           12 
   2793000   0.013056949   -0.002961763    196            0.011830717           12 
   2794000   0.020473524    0.02184676     196            0.015953739           12 
   2795000   0.027257109   -0.0003709673   196            0.0072419022          12 
   2796000   0.012736046    0.0030978695   196            0.014343908           12 
   2797000   0.0087427147  -0.013775844    196            0.016566206           12 
   2798000   0.017365325    0.010243275    196            0.019168286           12 
   2799000   0.017251455   -0.0047761988   196            0.020162613           12 
   2800000   0.018220386   -0.020231746    196            0.018414514           12 
   2801000   0.022501482    0.0025475876   196            0.015910055           12 
   2802000   0.016382719   -0.010197952    196            0.019429476           12 
   2803000   0.017170876   -0.010578184    196            0.014603008           12 
   2804000   0.015064359    0.017289132    196            0.013964443           12 
   2805000   0.010406033   -0.0062276396   196            0.020711489           12 
   2806000   0.028219143   -0.0099614      196            0.014030286           12 
   2807000   0.030174081    0.0023799587   196            0.016652105           12 
   2808000   0.017443559   -0.0065355727   196            0.025218775           12 
   2809000   0.019478881    0.010774595    196            0.021012804           12 
   2810000   0.022834024    0.009285194    196            0.0093107492          12 
   2811000   0.029237622    0.014189834    196            0.014959393           12 
   2812000   0.0099604362  -0.016745632    196            0.02033779            12 
   2813000   0.021136079   -0.0032528469   196            0.011807362           12 
   2814000   0.015081055    0.0042345629   196            0.016877797           12 
   2815000   0.016553675    0.017718531    196            0.016792355           12 
   2816000   0.019003523   -0.0070007087   196            0.010611709           12 
   2817000   0.024471438   -0.0032907453   196            0.01343636            12 
   2818000   0.012023491    0.01505003     196            0.015059755           12 
   2819000   0.015286619   -0.022767502    196            0.013410221           12 
   2820000   0.014597288   -0.0012284717   196            0.012363005           12 
   2821000   0.014474527    0.0072535238   196            0.017308309           12 
   2822000   0.022027622   -0.0052017633   196            0.0097897585          12 
   2823000   0.012551039   -0.0060286247   196            0.023168005           12 
   2824000   0.025485503    0.023828948    196            0.012537374           12 
   2825000   0.016025281   -0.018562302    196            0.020670832           12 
   2826000   0.025190461    0.01601574     196            0.017656413           12 
   2827000   0.022127383   -0.014043051    196            0.014042079           12 
   2828000   0.017174103    0.027117724    196            0.01551192            12 
   2829000   0.013065849   -0.0032347514   196            0.013919763           12 
   2830000   0.021489564    0.007600787    196            0.011268887           12 
   2831000   0.027446104   -0.0057844907   196            0.011532235           12 
   2832000   0.032872605    0.01021591     196            0.017325272           12 
   2833000   0.015062535   -0.01228023     196            0.019086498           12 
   2834000   0.016095708   -0.010695182    196            0.016495639           12 
   2835000   0.020931723   -0.00087569799  196            0.014500679           12 
   2836000   0.018245967   -0.00088867471  196            0.01391566            12 
   2837000   0.014863402    0.008681026    196            0.01689245            12 
   2838000   0.015394585   -0.0093479173   196            0.018691999           12 
   2839000   0.017485285   -0.0079916655   196            0.014412703           12 
   2840000   0.015476007   -0.016577833    196            0.014668779           12 
   2841000   0.014736115    0.0055206585   196            0.011252083           12 
   2842000   0.020479626   -0.023965351    196            0.016420636           12 
   2843000   0.012422697    0.0039461832   196            0.0188481             12 
   2844000   0.017006132   -0.014037006    196            0.01462299            12 
   2845000   0.016381334    0.005112373    196            0.010347942           12 
   2846000   0.016620196   -0.0023122092   196            0.0095557239          12 
   2847000   0.014356664    0.0034340972   196            0.014121128           12 
   2848000   0.02255411    -0.002470098    196            0.012361544           12 
   2849000   0.027253968   -0.021818406    196            0.016451452           12 
   2850000   0.018424466    0.021186521    196            0.012770153           12 
   2851000   0.027091645    0.0056168716   196            0.017407736           12 
   2852000   0.025939788    0.0055537885   196            0.012459996           12 
   2853000   0.024759171    0.00081631627  196            0.01721561            12 
   2854000   0.033640644   -0.01338991     196            0.016474074           12 
   2855000   0.030384457    0.017504891    196            0.026461269           12 
   2856000   0.016847935   -0.0009489306   196            0.011300075           12 
   2857000   0.01331385     0.00902742     196            0.020860882           12 
   2858000   0.014114532   -0.0060493601   196            0.019870956           12 
   2859000   0.0158176      0.0046889242   196            0.015527778           12 
   2860000   0.024250377    8.0694146e-05  196            0.014337132           12 
   2861000   0.022510828   -0.0076476163   196            0.021316032           12 
   2862000   0.022583068    0.010686465    196            0.012620545           12 
   2863000   0.029591513   -0.030837247    196            0.020923306           12 
   2864000   0.020915251    0.0088188806   196            0.015858774           12 
   2865000   0.022472998   -0.0014418066   196            0.013802543           12 
   2866000   0.015699034   -0.0060903547   196            0.014875256           12 
   2867000   0.024525358   -0.015688733    196            0.019345907           12 
   2868000   0.031523299   -0.0089441036   196            0.023009791           12 
   2869000   0.024773678   -0.013794455    196            0.019528856           12 
   2870000   0.020999132   -0.0064630649   196            0.021413004           12 
   2871000   0.015196045    0.021235081    196            0.021705247           12 
   2872000   0.019061282    5.1348574e-05  196            0.027851984           12 
   2873000   0.022215948    0.0064935822   196            0.012653819           12 
   2874000   0.020575773    0.010076685    196            0.017018779           12 
   2875000   0.016660513   -0.0029795278   196            0.020185956           12 
   2876000   0.02346512     0.010024748    196            0.020251764           12 
   2877000   0.016217777   -0.0063104492   196            0.011914609           12 
   2878000   0.026676032    0.0078952984   196            0.011498723           12 
   2879000   0.013784656    0.0039175166   196            0.0096901558          12 
   2880000   0.012302802    0.00882242     196            0.018633775           12 
   2881000   0.030086698    0.01205268     196            0.01184982            12 
   2882000   0.017085726   -0.012567177    196           