LAMMPS (29 Aug 2024 - Update 1)
# FENE beadspring benchmark

units		lj
atom_style	full
dimension 2
special_bonds lj/coul 0.0 1.0 1.0
#atom_style	molecular
boundary        p p p
#special_bonds lj/coul 0.0 1.0 1.0
#comm_modify mode single cutoff 10.0

neighbor	1.0 bin
neigh_modify	every 1 delay 1

read_data       data_toy_protein3
ERROR: Cannot open file data_toy_protein3: No such file or directory (src/read_data.cpp:367)
Last command: read_data       data_toy_protein3
